 -0.12000000000000000          0.0000000000000000
 -0.11889999999999999          0.0000000000000000
 -0.11780000000000000          0.0000000000000000
 -0.11670000000000000          0.0000000000000000
 -0.11559999999999999          0.0000000000000000
 -0.11449999999999999          0.0000000000000000
 -0.11340000000000000          0.0000000000000000
 -0.11230000000000000          0.0000000000000000
 -0.11119999999999999         -1.4575945261788493E-021
 -0.11009999999999999          5.4724854072179021E-020
 -0.10900000000000000          1.0305374085294489E-019
 -0.10790000000000000         -8.1159280749977214E-019
 -0.10679999999999999         -1.5165515908862255E-018
 -0.10569999999999999          1.0298684003596525E-017
 -0.10460000000000000          3.4287486731992702E-017
 -0.10349999999999999         -4.1187152422530215E-017
 -0.10239999999999999         -3.8206262824896551E-016
 -0.10130000000000000         -4.8652397232072696E-016
 -0.10020000000000000          1.5235288337105113E-015
  -9.9099999999999994E-002     6.0853731077934337E-015
  -9.7999999999999990E-002     4.2603008624977467E-015
  -9.6899999999999986E-002    -2.1962815545178635E-014
  -9.5799999999999996E-002    -6.4853511287394500E-014
  -9.4699999999999993E-002    -3.4872715744824548E-014
  -9.3599999999999989E-002     1.9821979073322143E-013
  -9.2499999999999999E-002     5.3158074730247362E-013
  -9.1399999999999995E-002     3.1456518704946201E-013
  -9.0299999999999991E-002    -1.2647534929077775E-012
  -8.9200000000000002E-002    -3.5225782794162663E-012
  -8.8099999999999984E-002    -2.6897256123759039E-012
  -8.6999999999999994E-002     5.8319980789089954E-012
  -8.5899999999999990E-002     1.9131137646288821E-011
  -8.4799999999999986E-002     1.9114919716511913E-011
  -8.3699999999999997E-002    -1.7848460556746382E-011
  -8.2599999999999993E-002    -8.4865170446590810E-011
  -8.1499999999999989E-002    -1.0918952547678273E-010
  -8.0399999999999999E-002     1.7120268744341693E-011
  -7.9299999999999995E-002     3.0176200427334265E-010
  -7.8199999999999992E-002     5.0179504995639945E-010
  -7.7100000000000002E-002     1.8763805786914389E-010
  -7.5999999999999984E-002    -8.1664913720302934E-010
  -7.4899999999999994E-002    -1.8590530226347823E-009
  -7.3799999999999991E-002    -1.4725246577640405E-009
  -7.2699999999999987E-002     1.4036357631752594E-009
  -7.1599999999999997E-002     5.4948539052190881E-009
  -7.0499999999999993E-002     6.5669572002491350E-009
  -6.9399999999999989E-002     2.2815126177189171E-010
  -6.8300000000000000E-002    -1.2444330899086253E-008
  -6.7199999999999996E-002    -2.1366156843782846E-008
  -6.6099999999999992E-002    -1.2361467405241910E-008
  -6.5000000000000002E-002     1.8747327246160239E-008
  -6.3899999999999985E-002     5.3150163381587845E-008
  -6.2799999999999995E-002     5.3846786585154405E-008
  -6.1699999999999991E-002    -4.5758112854343835E-009
  -6.0599999999999994E-002    -9.8820805760624353E-008
  -5.9499999999999990E-002    -1.5049475621253805E-007
  -5.8399999999999994E-002    -7.7458139458030928E-008
  -5.7299999999999990E-002     1.1922777787276573E-007
  -5.6199999999999986E-002     3.0796385885878408E-007
  -5.5099999999999996E-002     2.9282026048349508E-007
  -5.3999999999999992E-002    -1.6797697455217531E-008
  -5.2899999999999989E-002    -4.6006960019440157E-007
  -5.1799999999999985E-002    -6.6731763581628911E-007
  -5.0699999999999995E-002    -3.3563492252142169E-007
  -4.9599999999999991E-002     4.4137962618151505E-007
  -4.8499999999999988E-002     1.1027606205971097E-006
  -4.7399999999999998E-002     9.8583302587940125E-007
  -4.6299999999999994E-002    -6.7917127921646170E-008
  -4.5199999999999990E-002    -1.3813190662403940E-006
  -4.4099999999999986E-002    -1.8117907529813237E-006
  -4.2999999999999997E-002    -6.9941819447194575E-007
  -4.1899999999999993E-002     1.3484626606441452E-006
  -4.0799999999999989E-002     2.6578493361739675E-006
  -3.9699999999999985E-002     1.7828672298492165E-006
  -3.8599999999999995E-002    -1.0377858643551008E-006
  -3.7499999999999992E-002    -3.6290516618464608E-006
  -3.6399999999999988E-002    -3.4183383377239807E-006
  -3.5299999999999984E-002     2.1791576898522180E-007
  -3.4199999999999994E-002     4.8219917516689748E-006
  -3.3099999999999991E-002     6.3250481616705656E-006
  -3.1999999999999987E-002     2.3957870780577650E-006
  -3.0899999999999997E-002    -4.9827635848487262E-006
  -2.9799999999999993E-002    -1.0240679330308922E-005
  -2.8699999999999989E-002    -8.3043014456052333E-006
  -2.7599999999999986E-002     9.2484418701133109E-007
  -2.6499999999999996E-002     1.1538617400219664E-005
  -2.5399999999999992E-002     1.5485842595808208E-005
  -2.4299999999999988E-002     8.7598436948610470E-006
  -2.3199999999999985E-002    -4.9613167902862187E-006
  -2.2099999999999995E-002    -1.6464406144223176E-005
  -2.0999999999999991E-002    -1.7655998817645013E-005
  -1.9899999999999987E-002    -7.6620481195277534E-006
  -1.8799999999999983E-002     6.4694509092078079E-006
  -1.7699999999999994E-002     1.5103308214747813E-005
  -1.6599999999999990E-002     1.3233623576525133E-005
  -1.5499999999999986E-002     3.9603423829248641E-006
  -1.4399999999999996E-002    -4.3812565309053753E-006
  -1.3299999999999992E-002    -5.0696471589617431E-006
  -1.2199999999999989E-002     1.5177230352492188E-006
  -1.1099999999999985E-002     7.9647797974757850E-006
  -9.9999999999999950E-003     5.4708129937353078E-006
  -8.8999999999999913E-003    -8.8139822764787823E-006
  -7.7999999999999875E-003    -2.7902206056751311E-005
  -6.6999999999999837E-003    -3.7665991840185598E-005
  -5.5999999999999939E-003    -2.5358096536365338E-005
  -4.4999999999999901E-003     1.0602891961752903E-005
  -3.3999999999999864E-003     5.5907508794916794E-005
  -2.2999999999999826E-003     8.5254825535230339E-005
  -1.1999999999999927E-003     7.6059477578382939E-005
  -9.9999999999988987E-005     2.3629623683518730E-005
   1.0000000000000148E-003    -5.2490428060991690E-005
   2.1000000000000185E-003    -1.1703273048624396E-004
   3.2000000000000084E-003    -1.3827753718942404E-004
   4.3000000000000121E-003    -1.0532746819080785E-004
   5.4000000000000159E-003    -3.1400311854667962E-005
   6.5000000000000058E-003     5.7733381254365668E-005
   7.6000000000000234E-003     1.3852986739948392E-004
   8.7000000000000133E-003     1.9414932467043400E-004
   9.8000000000000032E-003     2.0719444728456438E-004
   1.0900000000000021E-002     1.5451648505404592E-004
   1.2000000000000011E-002     1.9659039026009850E-005
   1.3100000000000001E-002    -1.7907770234160125E-004
   1.4200000000000018E-002    -3.6983811878599226E-004
   1.5300000000000008E-002    -4.4665718451142311E-004
   1.6400000000000026E-002    -3.3020687988027930E-004
   1.7500000000000016E-002    -3.3764204999897629E-005
   1.8600000000000005E-002     3.1932746060192585E-004
   1.9700000000000023E-002     5.5401929421350360E-004
   2.0800000000000013E-002     5.4855394409969449E-004
   2.1900000000000003E-002     3.1440550810657442E-004
   2.3000000000000020E-002    -1.0273684893036261E-005
   2.4100000000000010E-002    -2.5409841327928007E-004
   2.5200000000000000E-002    -3.2673275563865900E-004
   2.6300000000000018E-002    -2.6951383915729821E-004
   2.7400000000000008E-002    -2.0452561147976667E-004
   2.8500000000000025E-002    -2.2146991977933794E-004
   2.9600000000000015E-002    -2.9066944262012839E-004
   3.0700000000000005E-002    -2.7436102391220629E-004
   3.1800000000000023E-002    -3.8623267755610868E-005
   3.2900000000000013E-002     4.0659311343915761E-004
   3.4000000000000002E-002     8.4232672816142440E-004
   3.5100000000000020E-002     9.1940717538818717E-004
   3.6200000000000010E-002     3.6803437978960574E-004
   3.7300000000000028E-002    -7.6444452861323953E-004
   3.8400000000000017E-002    -1.9978606142103672E-003
   3.9500000000000007E-002    -2.5432894472032785E-003
   4.0600000000000025E-002    -1.6655178042128682E-003
   4.1700000000000015E-002     8.7458553025498986E-004
   4.2800000000000005E-002     4.5568314380943775E-003
   4.3900000000000022E-002     8.2292184233665466E-003
   4.5000000000000012E-002     1.0631242766976357E-002
   4.6100000000000002E-002     1.1060517281293869E-002
   4.7200000000000020E-002     9.7965449094772339E-003
   4.8300000000000010E-002     8.0061173066496849E-003
   4.9400000000000027E-002     7.1639893576502800E-003
   5.0500000000000017E-002     8.3319181576371193E-003
   5.1600000000000007E-002     1.1726577766239643E-002
   5.2700000000000025E-002     1.6811603680253029E-002
   5.3800000000000014E-002     2.2803016006946564E-002
   5.4900000000000004E-002     2.9231553897261620E-002
   5.6000000000000022E-002     3.6215197294950485E-002
   5.7100000000000012E-002     4.4328249990940094E-002
   5.8200000000000002E-002     5.4220538586378098E-002
   5.9300000000000019E-002     6.6272228956222534E-002
   6.0400000000000009E-002     8.0494843423366547E-002
   6.1500000000000027E-002     9.6733808517456055E-002
   6.2600000000000017E-002    0.11504521220922470
   6.3700000000000007E-002    0.13604460656642914
   6.4800000000000024E-002    0.16102479398250580
   6.5900000000000014E-002    0.19172516465187073
   6.7000000000000004E-002    0.22980928421020508
   6.8100000000000022E-002    0.27630183100700378
   6.9200000000000012E-002    0.33133631944656372
   7.0300000000000029E-002    0.39444422721862793
   7.1400000000000019E-002    0.46529796719551086
   7.2500000000000009E-002    0.54449123144149780
   7.3600000000000027E-002    0.63385301828384399
   7.4700000000000016E-002    0.73603570461273193
   7.5800000000000006E-002    0.85369729995727539
   7.6900000000000024E-002    0.98876905441284180
   7.8000000000000014E-002     1.1423189640045166
   7.9100000000000004E-002     1.3150269985198975
   8.0200000000000021E-002     1.5079118013381958
   8.1300000000000011E-002     1.7226959466934204
   8.2400000000000029E-002     1.9617131948471069
   8.3500000000000019E-002     2.2272591590881348
   8.4600000000000009E-002     2.5210752487182617
   8.5700000000000026E-002     2.8439891338348389
   8.6800000000000016E-002     3.1958668231964111
   8.7900000000000006E-002     3.5760092735290527
   8.9000000000000024E-002     3.9835827350616455
   9.0100000000000013E-002     4.4181485176086426
   9.1200000000000003E-002     4.8798079490661621
   9.2300000000000021E-002     5.3688631057739258
   9.3400000000000011E-002     5.8848299980163574
   9.4500000000000028E-002     6.4254817962646484
   9.5600000000000018E-002     6.9860215187072754
   9.6700000000000008E-002     7.5596685409545898
   9.7800000000000026E-002     8.1389627456665039
   9.8900000000000016E-002     8.7168874740600586
  0.10000000000000001          9.2872486114501953
  0.10110000000000002          9.8433551788330078
  0.10220000000000001          10.376344680786133
  0.10330000000000003          10.874968528747559
  0.10440000000000002          11.325726509094238
  0.10550000000000001          11.713652610778809
  0.10660000000000003          12.023414611816406
  0.10770000000000002          12.239352226257324
  0.10880000000000001          12.346831321716309
  0.10990000000000003          12.331541061401367
  0.11100000000000002          12.179768562316895
  0.11210000000000001          11.877087593078613
  0.11320000000000002          11.408241271972656
  0.11430000000000001          10.758283615112305
  0.11540000000000003          9.9136562347412109
  0.11650000000000002          8.8628749847412109
  0.11760000000000001          7.5959343910217285
  0.11870000000000003          6.1061086654663086
  0.11980000000000002          4.3904752731323242
  0.12090000000000001          2.4477775096893311
  0.12200000000000003         0.28058698773384094
  0.12310000000000001         -2.1051571369171143
  0.12420000000000003         -4.6975736618041992
  0.12530000000000002         -7.4812989234924316
  0.12640000000000001         -10.435413360595703
  0.12750000000000003         -13.535884857177734
  0.12860000000000002         -16.756067276000977
  0.12970000000000001         -20.066232681274414
  0.13080000000000003         -23.430082321166992
  0.13190000000000002         -26.805459976196289
  0.13300000000000001         -30.149526596069336
  0.13410000000000000         -33.412342071533203
  0.13520000000000004         -36.546833038330078
  0.13630000000000003         -39.504608154296875
  0.13740000000000002         -42.234317779541016
  0.13850000000000001         -44.686283111572266
  0.13960000000000000         -46.813232421875000
  0.14070000000000005         -48.569831848144531
  0.14180000000000004         -49.916809082031250
  0.14290000000000003         -50.813720703125000
  0.14400000000000002         -51.228355407714844
  0.14510000000000001         -51.131340026855469
  0.14620000000000000         -50.502540588378906
  0.14730000000000004         -49.328037261962891
  0.14840000000000003         -47.601482391357422
  0.14950000000000002         -45.326564788818359
  0.15060000000000001         -42.514705657958984
  0.15170000000000000         -39.187038421630859
  0.15280000000000005         -35.371891021728516
  0.15390000000000004         -31.106084823608398
  0.15500000000000003         -26.433107376098633
  0.15610000000000002         -21.402545928955078
  0.15720000000000001         -16.069715499877930
  0.15830000000000000         -10.494680404663086
  0.15940000000000004         -4.7410068511962891
  0.16050000000000003          1.1249035596847534
  0.16160000000000002          7.0335988998413086
  0.16270000000000001          12.915235519409180
  0.16380000000000000          18.699642181396484
  0.16490000000000005          24.321336746215820
  0.16600000000000004          29.719810485839844
  0.16710000000000003          34.840366363525391
  0.16820000000000002          39.633144378662109
  0.16930000000000001          44.053993225097656
  0.17040000000000000          48.066535949707031
  0.17150000000000004          51.645088195800781
  0.17260000000000003          54.768741607666016
  0.17370000000000002          57.421775817871094
  0.17480000000000001          59.601257324218750
  0.17590000000000000          61.309974670410156
  0.17700000000000005          62.561000823974609
  0.17810000000000004          63.374126434326172
  0.17920000000000003          63.767478942871094
  0.18030000000000002          63.765598297119141
  0.18140000000000001          63.396419525146484
  0.18250000000000000          62.694072723388672
  0.18360000000000004          61.695858001708984
  0.18470000000000003          60.434417724609375
  0.18580000000000002          58.937931060791016
  0.18690000000000001          57.234119415283203
  0.18800000000000000          55.347599029541016
  0.18910000000000005          53.295074462890625
  0.19020000000000004          51.091594696044922
  0.19130000000000003          48.745868682861328
  0.19240000000000002          46.261947631835938
  0.19350000000000001          43.635719299316406
  0.19460000000000005          40.854824066162109
  0.19570000000000004          37.905567169189453
  0.19680000000000003          34.771846771240234
  0.19790000000000002          31.432365417480469
  0.19900000000000001          27.861951828002930
  0.20010000000000000          24.030485153198242
  0.20120000000000005          19.906990051269531
  0.20230000000000004          15.465301513671875
  0.20340000000000003          10.683909416198730
  0.20450000000000002          5.5456881523132324
  0.20560000000000000          3.6592587828636169E-002
  0.20670000000000005         -5.8514361381530762
  0.20780000000000004         -12.118220329284668
  0.20890000000000003         -18.753389358520508
