 -0.12000000000000000          0.0000000000000000
 -0.11889999999999999          0.0000000000000000
 -0.11780000000000000          0.0000000000000000
 -0.11670000000000000          0.0000000000000000
 -0.11559999999999999          0.0000000000000000
 -0.11449999999999999          0.0000000000000000
 -0.11340000000000000         -7.2299862060901518E-018
 -0.11230000000000000         -1.8222011344767400E-017
 -0.11119999999999999          2.2755098413539675E-017
 -0.11009999999999999         -9.5887656727318724E-017
 -0.10900000000000000         -1.3679576804201030E-015
 -0.10790000000000000         -3.1816414618608376E-015
 -0.10679999999999999          3.1787391034670707E-015
 -0.10569999999999999          2.8744473029021153E-014
 -0.10460000000000000          4.4092869275463159E-014
 -0.10349999999999999         -5.7237065564583189E-014
 -0.10239999999999999         -3.3116966200591458E-013
 -0.10130000000000000         -4.3956128342216572E-013
 -0.10020000000000000          4.2473766474412922E-013
  -9.9099999999999994E-002     2.4808584006552614E-012
  -9.7999999999999990E-002     3.4323919574641426E-012
  -9.6899999999999986E-002    -1.3923523792258585E-012
  -9.5799999999999996E-002    -1.3235450929682813E-011
  -9.4699999999999993E-002    -2.1023453811164217E-011
  -9.3599999999999989E-002    -2.5358773241002108E-012
  -9.2499999999999999E-002     5.1204349788003256E-011
  -9.1399999999999995E-002     1.0009998385740460E-010
  -9.0299999999999991E-002     5.5708413576605054E-011
  -8.9200000000000002E-002    -1.3623505101811872E-010
  -8.8099999999999984E-002    -3.6807704106855965E-010
  -8.6999999999999994E-002    -3.4661729042539946E-010
  -8.5899999999999990E-002     1.7980024413777329E-010
  -8.4799999999999986E-002     1.0231483438261080E-009
  -8.3699999999999997E-002     1.3868020065643805E-009
  -8.2599999999999993E-002     3.6270683678729654E-010
  -8.1499999999999989E-002    -2.0016648338838650E-009
  -8.0399999999999999E-002    -3.9877376956098942E-009
  -7.9299999999999995E-002    -3.0047324628412753E-009
  -7.8199999999999992E-002     1.9958075192505476E-009
  -7.7100000000000002E-002     8.2828126579670425E-009
  -7.5999999999999984E-002     9.9967332189976332E-009
  -7.4899999999999994E-002     2.6588209411926300E-009
  -7.3799999999999991E-002    -1.1324069681961646E-008
  -7.2699999999999987E-002    -2.1618276946355763E-008
  -7.1599999999999997E-002    -1.6650037792942385E-008
  -7.0499999999999993E-002     5.4805444626992994E-009
  -6.9399999999999989E-002     3.1271522260567508E-008
  -6.8300000000000000E-002     3.9029490750408513E-008
  -6.7199999999999996E-002     1.6432027294399632E-008
  -6.6099999999999992E-002    -2.5377058676667730E-008
  -6.5000000000000002E-002    -5.5759549866252200E-008
  -6.3899999999999985E-002    -4.7585405837935468E-008
  -6.2799999999999995E-002    -1.9953787511184373E-009
  -6.1699999999999991E-002     4.7992109841743513E-008
  -6.0599999999999994E-002     6.2365025144117681E-008
  -5.9499999999999990E-002     2.8907210847251008E-008
  -5.8399999999999994E-002    -2.3322330733321905E-008
  -5.7299999999999990E-002    -4.7438948769240596E-008
  -5.6199999999999986E-002    -2.1489565682486500E-008
  -5.5099999999999996E-002     2.8052157929892019E-008
  -5.3999999999999992E-002     4.6965840994062091E-008
  -5.2899999999999989E-002     3.5884359927962350E-009
  -5.1799999999999985E-002    -7.5772788932226831E-008
  -5.0699999999999995E-002    -1.2137843441450968E-007
  -4.9599999999999991E-002    -7.6325903819451923E-008
  -4.8499999999999988E-002     5.2102492986705329E-008
  -4.7399999999999998E-002     1.9009645768619521E-007
  -4.6299999999999994E-002     2.4623949457236449E-007
  -4.5199999999999990E-002     1.7177386268940609E-007
  -4.4099999999999986E-002    -1.2060527687651756E-008
  -4.2999999999999997E-002    -2.3042704810904979E-007
  -4.1899999999999993E-002    -3.9115897720876092E-007
  -4.0799999999999989E-002    -4.1450815047028300E-007
  -3.9699999999999985E-002    -2.5436435180381523E-007
  -3.8599999999999995E-002     7.5931446019694704E-008
  -3.7499999999999992E-002     4.7727576202305499E-007
  -3.6399999999999988E-002     7.7114538044043002E-007
  -3.5299999999999984E-002     7.6884532518306514E-007
  -3.4199999999999994E-002     3.8477131170111534E-007
  -3.3099999999999991E-002    -2.7948033221036894E-007
  -3.1999999999999987E-002    -9.5282194934043218E-007
  -3.0899999999999997E-002    -1.3186330534153967E-006
  -2.9799999999999993E-002    -1.1699659125952167E-006
  -2.8699999999999989E-002    -5.0359358283458278E-007
  -2.7599999999999986E-002     4.8219152404271881E-007
  -2.6499999999999996E-002     1.4529516647598939E-006
  -2.5399999999999992E-002     2.0247166503395420E-006
  -2.4299999999999988E-002     1.8739616507446044E-006
  -2.3199999999999985E-002     8.9008523218581104E-007
  -2.2099999999999995E-002    -6.7556732119555818E-007
  -2.0999999999999991E-002    -2.1997013845975744E-006
  -1.9899999999999987E-002    -2.9337052183109336E-006
  -1.8799999999999983E-002    -2.4422256501566153E-006
  -1.7699999999999994E-002    -9.4777738013362978E-007
  -1.6599999999999990E-002     7.3567935032770038E-007
  -1.5499999999999986E-002     1.7312439695160720E-006
  -1.4399999999999996E-002     1.7474430933361873E-006
  -1.3299999999999992E-002     1.3276370509629487E-006
  -1.2199999999999989E-002     1.4318626426756964E-006
  -1.1099999999999985E-002     2.6050222459161887E-006
  -9.9999999999999950E-003     4.3537183955777436E-006
  -8.8999999999999913E-003     5.2368432079674676E-006
  -7.7999999999999875E-003     3.6458832255448215E-006
  -6.6999999999999837E-003    -1.2610098565346561E-006
  -5.5999999999999939E-003    -9.0946841737604700E-006
  -4.4999999999999901E-003    -1.8495031326892786E-005
  -3.3999999999999864E-003    -2.7885211238753982E-005
  -2.2999999999999826E-003    -3.6262517824070528E-005
  -1.1999999999999927E-003    -4.3679170630639419E-005
  -9.9999999999988987E-005    -5.1303992222528905E-005
   1.0000000000000148E-003    -6.1101614846847951E-005
   2.1000000000000185E-003    -7.5220930739305913E-005
   3.2000000000000084E-003    -9.5287614385597408E-005
   4.3000000000000121E-003    -1.2195517047075555E-004
   5.4000000000000159E-003    -1.5507066564168781E-004
   6.5000000000000058E-003    -1.9446786609478295E-004
   7.6000000000000234E-003    -2.4087760539259762E-004
   8.7000000000000133E-003    -2.9623310547322035E-004
   9.8000000000000032E-003    -3.6309182178229094E-004
   1.0900000000000021E-002    -4.4373085256665945E-004
   1.2000000000000011E-002    -5.3993490291759372E-004
   1.3100000000000001E-002    -6.5400876337662339E-004
   1.4200000000000018E-002    -7.9039111733436584E-004
   1.5300000000000008E-002    -9.5644325483590364E-004
   1.6400000000000026E-002    -1.1614019749686122E-003
   1.7500000000000016E-002    -1.4139439444988966E-003
   1.8600000000000005E-002    -1.7201065784320235E-003
   1.9700000000000023E-002    -2.0832708105444908E-003
   2.0800000000000013E-002    -2.5064910296350718E-003
   2.1900000000000003E-002    -2.9957741498947144E-003
   2.3000000000000020E-002    -3.5623225849121809E-003
   2.4100000000000010E-002    -4.2226291261613369E-003
   2.5200000000000000E-002    -4.9967411905527115E-003
   2.6300000000000018E-002    -5.9058479964733124E-003
   2.7400000000000008E-002    -6.9702621549367905E-003
   2.8500000000000025E-002    -8.2083651795983315E-003
   2.9600000000000015E-002    -9.6368156373500824E-003
   3.0700000000000005E-002    -1.1272275820374489E-002
   3.1800000000000023E-002    -1.3134459964931011E-002
   3.2900000000000013E-002    -1.5249284915626049E-002
   3.4000000000000002E-002    -1.7650108784437180E-002
   3.5100000000000020E-002    -2.0375594496726990E-002
   3.6200000000000010E-002    -2.3464860394597054E-002
   3.7300000000000028E-002    -2.6952667161822319E-002
   3.8400000000000017E-002    -3.0867710709571838E-002
   3.9500000000000007E-002    -3.5234898328781128E-002
   4.0600000000000025E-002    -4.0079645812511444E-002
   4.1700000000000015E-002    -4.5430913567543030E-002
   4.2800000000000005E-002    -5.1321119070053101E-002
   4.3900000000000022E-002    -5.7783514261245728E-002
   4.5000000000000012E-002    -6.4848914742469788E-002
   4.6100000000000002E-002    -7.2543621063232422E-002
   4.7200000000000020E-002    -8.0887988209724426E-002
   4.8300000000000010E-002    -8.9894309639930725E-002
   4.9400000000000027E-002    -9.9564276635646820E-002
   5.0500000000000017E-002   -0.10988704860210419
   5.1600000000000007E-002   -0.12083925306797028
   5.2700000000000025E-002   -0.13238695263862610
   5.3800000000000014E-002   -0.14448700845241547
   5.4900000000000004E-002   -0.15708561241626740
   5.6000000000000022E-002   -0.17011444270610809
   5.7100000000000012E-002   -0.18348751962184906
   5.8200000000000002E-002   -0.19710016250610352
   5.9300000000000019E-002   -0.21082971990108490
   6.0400000000000009E-002   -0.22453704476356506
   6.1500000000000027E-002   -0.23806445300579071
   6.2600000000000017E-002   -0.25123152136802673
   6.3700000000000007E-002   -0.26383438706398010
   6.4800000000000024E-002   -0.27564916014671326
   6.5900000000000014E-002   -0.28643813729286194
   6.7000000000000004E-002   -0.29595595598220825
   6.8100000000000022E-002   -0.30395084619522095
   6.9200000000000012E-002   -0.31016239523887634
   7.0300000000000029E-002   -0.31432041525840759
   7.1400000000000019E-002   -0.31614929437637329
   7.2500000000000009E-002   -0.31537649035453796
   7.3600000000000027E-002   -0.31173932552337646
   7.4700000000000016E-002   -0.30498725175857544
   7.5800000000000006E-002   -0.29488444328308105
   7.6900000000000024E-002   -0.28121510148048401
   7.8000000000000014E-002   -0.26379179954528809
   7.9100000000000004E-002   -0.24246570467948914
   8.0200000000000021E-002   -0.21713304519653320
   8.1300000000000011E-002   -0.18773730099201202
   8.2400000000000029E-002   -0.15427049994468689
   8.3500000000000019E-002   -0.11677734553813934
   8.4600000000000009E-002    -7.5360357761383057E-002
   8.5700000000000026E-002    -3.0186500400304794E-002
   8.6800000000000016E-002     1.8512044101953506E-002
   8.7900000000000006E-002     7.0441380143165588E-002
   8.9000000000000024E-002    0.12524875998497009
   9.0100000000000013E-002    0.18252176046371460
   9.1200000000000003E-002    0.24178376793861389
   9.2300000000000021E-002    0.30249312520027161
   9.3400000000000011E-002    0.36405012011528015
   9.4500000000000028E-002    0.42580923438072205
   9.5600000000000018E-002    0.48709195852279663
   9.6700000000000008E-002    0.54719597101211548
   9.7800000000000026E-002    0.60539913177490234
   9.8900000000000016E-002    0.66096639633178711
  0.10000000000000001         0.71316164731979370
  0.10110000000000002         0.76126354932785034
  0.10220000000000001         0.80458134412765503
  0.10330000000000003         0.84246355295181274
  0.10440000000000002         0.87430143356323242
  0.10550000000000001         0.89953607320785522
  0.10660000000000003         0.91767179965972900
  0.10770000000000002         0.92829322814941406
  0.10880000000000001         0.93107807636260986
  0.10990000000000003         0.92580097913742065
  0.11100000000000002         0.91233098506927490
  0.11210000000000001         0.89063084125518799
  0.11320000000000002         0.86076146364212036
  0.11430000000000001         0.82288813591003418
  0.11540000000000003         0.77728241682052612
  0.11650000000000002         0.72431302070617676
  0.11760000000000001         0.66443175077438354
  0.11870000000000003         0.59816306829452515
  0.11980000000000002         0.52610021829605103
  0.12090000000000001         0.44890278577804565
  0.12200000000000003         0.36728838086128235
  0.12310000000000001         0.28201657533645630
  0.12420000000000003         0.19387103617191315
  0.12530000000000002         0.10364621132612228
  0.12640000000000001          1.2137436307966709E-002
  0.12750000000000003         -7.9865813255310059E-002
  0.12860000000000002        -0.17159169912338257
  0.12970000000000001        -0.26230376958847046
  0.13080000000000003        -0.35131639242172241
  0.13190000000000002        -0.43799987435340881
  0.13300000000000001        -0.52177751064300537
  0.13410000000000000        -0.60212719440460205
  0.13520000000000004        -0.67858785390853882
  0.13630000000000003        -0.75076776742935181
  0.13740000000000002        -0.81834769248962402
  0.13850000000000001        -0.88107484579086304
  0.13960000000000000        -0.93875354528427124
  0.14070000000000005        -0.99123686552047729
  0.14180000000000004         -1.0384238958358765
  0.14290000000000003         -1.0802605152130127
  0.14400000000000002         -1.1167342662811279
  0.14510000000000001         -1.1478596925735474
  0.14620000000000000         -1.1736617088317871
  0.14730000000000004         -1.1941637992858887
  0.14840000000000003         -1.2093849182128906
  0.14950000000000002         -1.2193393707275391
  0.15060000000000001         -1.2240304946899414
  0.15170000000000000         -1.2234367132186890
  0.15280000000000005         -1.2175009250640869
  0.15390000000000004         -1.2061280012130737
  0.15500000000000003         -1.1891916990280151
  0.15610000000000002         -1.1665433645248413
  0.15720000000000001         -1.1380109786987305
  0.15830000000000000         -1.1033971309661865
  0.15940000000000004         -1.0624810457229614
  0.16050000000000003         -1.0150259733200073
  0.16160000000000002        -0.96079373359680176
  0.16270000000000001        -0.89956295490264893
  0.16380000000000000        -0.83113831281661987
  0.16490000000000005        -0.75535506010055542
  0.16600000000000004        -0.67209130525588989
  0.16710000000000003        -0.58128732442855835
  0.16820000000000002        -0.48296761512756348
  0.16930000000000001        -0.37725511193275452
  0.17040000000000000        -0.26437374949455261
  0.17150000000000004        -0.14464917778968811
  0.17260000000000003         -1.8518945202231407E-002
  0.17370000000000002         0.11345215141773224
  0.17480000000000001         0.25056025385856628
  0.17590000000000000         0.39196318387985229
  0.17700000000000005         0.53669476509094238
  0.17810000000000004         0.68367713689804077
  0.17920000000000003         0.83172142505645752
  0.18030000000000002         0.97952973842620850
  0.18140000000000001          1.1257028579711914
  0.18250000000000000          1.2687586545944214
  0.18360000000000004          1.4071706533432007
  0.18470000000000003          1.5393995046615601
  0.18580000000000002          1.6639044284820557
  0.18690000000000001          1.7791514396667480
  0.18800000000000000          1.8836319446563721
  0.18910000000000005          1.9759006500244141
  0.19020000000000004          2.0546226501464844
  0.19130000000000003          2.1186075210571289
  0.19240000000000002          2.1668179035186768
  0.19350000000000001          2.1983697414398193
  0.19460000000000005          2.2125451564788818
  0.19570000000000004          2.2088248729705811
  0.19680000000000003          2.1869230270385742
  0.19790000000000002          2.1468033790588379
  0.19900000000000001          2.0886685848236084
  0.20010000000000000          2.0129394531250000
  0.20120000000000005          1.9202449321746826
  0.20230000000000004          1.8114321231842041
  0.20340000000000003          1.6875797510147095
  0.20450000000000002          1.5499874353408813
  0.20560000000000000          1.4001394510269165
  0.20670000000000005          1.2396554946899414
  0.20780000000000004          1.0702646970748901
  0.20890000000000003         0.89379823207855225
