 -0.12000000000000000          0.0000000000000000
 -0.11889999999999999          0.0000000000000000
 -0.11780000000000000          0.0000000000000000
 -0.11670000000000000          0.0000000000000000
 -0.11559999999999999          0.0000000000000000
 -0.11449999999999999          0.0000000000000000
 -0.11340000000000000          0.0000000000000000
 -0.11230000000000000          0.0000000000000000
 -0.11119999999999999          1.1574072544817682E-007
 -0.11009999999999999          0.0000000000000000
 -0.10900000000000000          0.0000000000000000
 -0.10790000000000000         -2.3148145089635364E-007
 -0.10679999999999999          0.0000000000000000
 -0.10569999999999999         -4.6296290179270727E-007
 -0.10460000000000000          4.6296290179270727E-007
 -0.10349999999999999          0.0000000000000000
 -0.10239999999999999          9.2592580358541454E-007
 -0.10130000000000000          0.0000000000000000
 -0.10020000000000000         -9.2592580358541454E-007
  -9.9099999999999994E-002    -1.8518516071708291E-006
  -9.7999999999999990E-002     1.8518516071708291E-006
  -9.6899999999999986E-002     1.8518516071708291E-006
  -9.5799999999999996E-002     0.0000000000000000
  -9.4699999999999993E-002    -3.7037032143416582E-006
  -9.3599999999999989E-002    -3.7037032143416582E-006
  -9.2499999999999999E-002     1.1111109415651299E-005
  -9.1399999999999995E-002     7.4074064286833163E-006
  -9.0299999999999991E-002    -7.4074064286833163E-006
  -8.9200000000000002E-002    -2.9629625714733265E-005
  -8.8099999999999984E-002     2.2222218831302598E-005
  -8.6999999999999994E-002     1.4814812857366633E-005
  -8.5899999999999990E-002     0.0000000000000000
  -8.4799999999999986E-002    -1.4814812857366633E-005
  -8.3699999999999997E-002     0.0000000000000000
  -8.2599999999999993E-002     0.0000000000000000
  -8.1499999999999989E-002     2.9629625714733265E-005
  -8.0399999999999999E-002     0.0000000000000000
  -7.9299999999999995E-002     0.0000000000000000
  -7.8199999999999992E-002     2.9629625714733265E-005
  -7.7100000000000002E-002    -2.9629625714733265E-005
  -7.5999999999999984E-002    -5.9259251429466531E-005
  -7.4899999999999994E-002     0.0000000000000000
  -7.3799999999999991E-002     0.0000000000000000
  -7.2699999999999987E-002    -1.1851850285893306E-004
  -7.1599999999999997E-002     5.9259251429466531E-005
  -7.0499999999999993E-002     1.1851850285893306E-004
  -6.9399999999999989E-002     1.1851850285893306E-004
  -6.8300000000000000E-002     0.0000000000000000
  -6.7199999999999996E-002    -2.3703700571786612E-004
  -6.6099999999999992E-002    -1.1851850285893306E-004
  -6.5000000000000002E-002     1.1851850285893306E-004
  -6.3899999999999985E-002     0.0000000000000000
  -6.2799999999999995E-002     0.0000000000000000
  -6.1699999999999991E-002     4.7407401143573225E-004
  -6.0599999999999994E-002    -2.3703700571786612E-004
  -5.9499999999999990E-002    -4.7407401143573225E-004
  -5.8399999999999994E-002     2.3703700571786612E-004
  -5.7299999999999990E-002    -2.3703700571786612E-004
  -5.6199999999999986E-002     4.7407401143573225E-004
  -5.5099999999999996E-002     0.0000000000000000
  -5.3999999999999992E-002     4.7407401143573225E-004
  -5.2899999999999989E-002     1.4222220052033663E-003
  -5.1799999999999985E-002    -1.4222220052033663E-003
  -5.0699999999999995E-002    -9.4814802287146449E-004
  -4.9599999999999991E-002    -9.4814802287146449E-004
  -4.8499999999999988E-002    -4.7407401143573225E-004
  -4.7399999999999998E-002     9.4814802287146449E-004
  -4.6299999999999994E-002     1.4222220052033663E-003
  -4.5199999999999990E-002     4.7407401143573225E-004
  -4.4099999999999986E-002    -9.4814802287146449E-004
  -4.2999999999999997E-002     0.0000000000000000
  -4.1899999999999993E-002     0.0000000000000000
  -4.0799999999999989E-002    -4.7407401143573225E-004
  -3.9699999999999985E-002     4.7407401143573225E-004
  -3.8599999999999995E-002     9.4814802287146449E-004
  -3.7499999999999992E-002     4.7407401143573225E-004
  -3.6399999999999988E-002    -9.4814802287146449E-004
  -3.5299999999999984E-002    -2.3703700862824917E-003
  -3.4199999999999994E-002    -4.7407401143573225E-004
  -3.3099999999999991E-002     0.0000000000000000
  -3.1999999999999987E-002     9.4814802287146449E-004
  -3.0899999999999997E-002     2.3703700862824917E-003
  -2.9799999999999993E-002     1.8962960457429290E-003
  -2.8699999999999989E-002    -2.3703700862824917E-003
  -2.7599999999999986E-002    -1.8962960457429290E-003
  -2.6499999999999996E-002     7.1111100260168314E-004
  -2.5399999999999992E-002    -1.4222220052033663E-003
  -2.4299999999999988E-002     1.1851850285893306E-004
  -2.3199999999999985E-002     2.5481479242444038E-003
  -2.2099999999999995E-002     3.1407403293997049E-003
  -2.0999999999999991E-002    -2.4888885673135519E-003
  -1.9899999999999987E-002    -4.2666662484407425E-003
  -1.8799999999999983E-002    -1.1851850431412458E-003
  -1.7699999999999994E-002     6.1629619449377060E-003
  -1.6599999999999990E-002     4.2666662484407425E-003
  -1.5499999999999986E-002    -1.8962960457429290E-003
  -1.4399999999999996E-002    -3.7925920914858580E-003
  -1.3299999999999992E-002    -4.7407401725649834E-003
  -1.2199999999999989E-002     0.0000000000000000
  -1.1099999999999985E-002     8.5333324968814850E-003
  -9.9999999999999950E-003     9.4814802287146449E-004
  -8.8999999999999913E-003    -3.7925920914858580E-003
  -7.7999999999999875E-003    -9.4814803451299667E-003
  -6.6999999999999837E-003    -5.6888880208134651E-003
  -5.5999999999999939E-003     5.6888880208134651E-003
  -4.4999999999999901E-003     1.4222220517694950E-002
  -3.3999999999999864E-003     7.5851841829717159E-003
  -2.2999999999999826E-003    -3.7925920914858580E-003
  -1.1999999999999927E-003    -1.3274072669446468E-002
  -9.9999999999988987E-005    -9.4814803451299667E-003
   1.0000000000000148E-003     5.6888880208134651E-003
   2.1000000000000185E-003     1.7066664993762970E-002
   3.2000000000000084E-003     3.7925920914858580E-003
   4.3000000000000121E-003    -1.5170368365943432E-002
   5.4000000000000159E-003    -1.4222220517694950E-002
   6.5000000000000058E-003     2.8444440104067326E-003
   7.6000000000000234E-003     1.3274072669446468E-002
   8.7000000000000133E-003     1.0429628193378448E-002
   9.8000000000000032E-003     9.4814802287146449E-004
   1.0900000000000021E-002    -1.5170368365943432E-002
   1.2000000000000011E-002    -7.5851841829717159E-003
   1.3100000000000001E-002     6.6370363347232342E-003
   1.4200000000000018E-002     1.2325923889875412E-002
   1.5300000000000008E-002     7.1111102588474751E-003
   1.6400000000000026E-002    -9.9555542692542076E-003
   1.7500000000000016E-002    -1.8962960690259933E-002
   1.8600000000000005E-002    -6.1629619449377060E-003
   1.9700000000000023E-002     1.3274072669446468E-002
   2.0800000000000013E-002     1.9911108538508415E-002
   2.1900000000000003E-002     5.9555545449256897E-003
   2.3000000000000020E-002    -1.1614813469350338E-002
   2.4100000000000010E-002    -1.4933330938220024E-002
   2.5200000000000000E-002    -8.5333324968814850E-003
   2.6300000000000018E-002     4.0296292863786221E-003
   2.7400000000000008E-002     1.2799998745322227E-002
   2.8500000000000025E-002     9.9555542692542076E-003
   2.9600000000000015E-002    -6.1629619449377060E-003
   3.0700000000000005E-002    -1.1851849965751171E-002
   3.1800000000000023E-002    -6.6370363347232342E-003
   3.2900000000000013E-002     1.0429628193378448E-002
   3.4000000000000002E-002     1.4696294441819191E-002
   3.5100000000000020E-002     7.5851841829717159E-003
   3.6200000000000010E-002    -9.4814803451299667E-003
   3.7300000000000028E-002    -1.7066664993762970E-002
   3.8400000000000017E-002    -9.0074064210057259E-003
   3.9500000000000007E-002     4.2666662484407425E-003
   4.0600000000000025E-002     1.2325923889875412E-002
   4.1700000000000015E-002     1.1377776041626930E-002
   4.2800000000000005E-002    -3.3185181673616171E-003
   4.3900000000000022E-002    -1.0429628193378448E-002
   4.5000000000000012E-002    -6.1629619449377060E-003
   4.6100000000000002E-002     5.6888880208134651E-003
   4.7200000000000020E-002     1.2325923889875412E-002
   4.8300000000000010E-002     6.1629619449377060E-003
   4.9400000000000027E-002    -6.1629619449377060E-003
   5.0500000000000017E-002    -1.3748146593570709E-002
   5.1600000000000007E-002    -9.9555542692542076E-003
   5.2700000000000025E-002     2.8444440104067326E-003
   5.3800000000000014E-002     1.1377776041626930E-002
   5.4900000000000004E-002     8.5333324968814850E-003
   5.6000000000000022E-002    -2.1333331242203712E-003
   5.7100000000000012E-002    -8.0592585727572441E-003
   5.8200000000000002E-002    -5.6888880208134651E-003
   5.9300000000000019E-002     1.6592590836808085E-003
   6.0400000000000009E-002     5.2148140966892242E-003
   6.1500000000000027E-002     3.7925920914858580E-003
   6.2600000000000017E-002    -7.1111100260168314E-004
   6.3700000000000007E-002    -3.3185181673616171E-003
   6.4800000000000024E-002    -2.2518516052514315E-003
   6.5900000000000014E-002     1.1851850431412458E-003
   6.7000000000000004E-002     2.1333331242203712E-003
   6.8100000000000022E-002    -3.5555550130084157E-004
   6.9200000000000012E-002    -2.2518516052514315E-003
   7.0300000000000029E-002    -8.2962954184040427E-004
   7.1400000000000019E-002     2.9629624914377928E-003
   7.2500000000000009E-002     4.7999992966651917E-003
   7.3600000000000027E-002     1.3629627646878362E-003
   7.4700000000000016E-002    -3.9111105725169182E-003
   7.5800000000000006E-002    -5.3333328105509281E-003
   7.6900000000000024E-002    -3.5555550130084157E-004
   7.8000000000000014E-002     3.5555551294237375E-003
   7.9100000000000004E-002     4.4148140586912632E-003
   8.0200000000000021E-002     9.7777764312922955E-004
   8.1300000000000011E-002    -4.6518510207533836E-003
   8.2400000000000029E-002    -6.8444437347352505E-003
   8.3500000000000019E-002    -2.8740738052874804E-003
   8.4600000000000009E-002     3.4222218673676252E-003
   8.5700000000000026E-002     7.7185174450278282E-003
   8.6800000000000016E-002     6.9925915449857712E-003
   8.7900000000000006E-002     1.0592591715976596E-003
   8.9000000000000024E-002    -5.0814808346331120E-003
   9.0100000000000013E-002    -7.3777767829596996E-003
   9.1200000000000003E-002    -4.7185178846120834E-003
   9.2300000000000021E-002     1.3999998336657882E-003
   9.3400000000000011E-002     4.0703699924051762E-003
   9.4500000000000028E-002     2.2629627492278814E-003
   9.5600000000000018E-002    -1.4444442931562662E-003
   9.6700000000000008E-002    -3.3666661474853754E-003
   9.7800000000000026E-002    -1.7259257147088647E-003
   9.8900000000000016E-002     2.2759255953133106E-003
  0.10000000000000001          5.2314805798232555E-003
  0.10110000000000002          4.3046292848885059E-003
  0.10220000000000001         -3.1388885690830648E-004
  0.10330000000000003         -4.1185179725289345E-003
  0.10440000000000002         -4.3263882398605347E-003
  0.10550000000000001         -1.3597219949588180E-003
  0.10660000000000003          2.2986107505857944E-003
  0.10770000000000002          3.9868052117526531E-003
  0.10880000000000001          2.3245366755872965E-003
  0.10990000000000003         -1.2423609150573611E-003
  0.11100000000000002         -4.2081014253199100E-003
  0.11210000000000001         -4.2567122727632523E-003
  0.11320000000000002         -1.6222220147028565E-003
  0.11430000000000001          2.2827542852610350E-003
  0.11540000000000003          4.9455431289970875E-003
  0.11650000000000002          4.5320019125938416E-003
  0.11760000000000001          1.4054975472390652E-003
  0.11870000000000003         -2.0924187265336514E-003
  0.11980000000000002         -3.7601846270263195E-003
  0.12090000000000001         -2.4248550180345774E-003
  0.12200000000000003          3.0745076946914196E-004
  0.12310000000000001          2.0091433543711901E-003
  0.12420000000000003          7.8677653800696135E-004
  0.12530000000000002         -2.1212091669440269E-003
  0.12640000000000001         -3.7863275501877069E-003
  0.12750000000000003         -1.4558302937075496E-003
  0.12860000000000002          4.1804537177085876E-003
  0.12970000000000001          8.2819433882832527E-003
  0.13080000000000003          6.3164196908473969E-003
  0.13190000000000002         -1.5826387098059058E-003
  0.13300000000000001         -9.9635841324925423E-003
  0.13410000000000000         -1.1851315386593342E-002
  0.13520000000000004         -5.2434746176004410E-003
  0.13630000000000003          4.7147236764431000E-003
  0.13740000000000002          9.7119491547346115E-003
  0.13850000000000001          5.8154487051069736E-003
  0.13960000000000000         -2.4453771766275167E-003
  0.14070000000000005         -6.6330721601843834E-003
  0.14180000000000004         -2.2143442183732986E-003
  0.14290000000000003          6.5097501501441002E-003
  0.14400000000000002          1.0778246447443962E-002
  0.14510000000000001          5.4247532971203327E-003
  0.14620000000000000         -5.5172303691506386E-003
  0.14730000000000004         -1.2417808175086975E-002
  0.14840000000000003         -9.3731321394443512E-003
  0.14950000000000002          5.5551208788529038E-004
  0.15060000000000001          7.9043172299861908E-003
  0.15170000000000000          6.6857738420367241E-003
  0.15280000000000005         -5.5304175475612283E-004
  0.15390000000000004         -5.3048999980092049E-003
  0.15500000000000003         -2.3729887325316668E-003
  0.15610000000000002          4.9246414564549923E-003
  0.15720000000000001          8.1656025722622871E-003
  0.15830000000000000          2.9470699373632669E-003
  0.15940000000000004         -5.8180764317512512E-003
  0.16050000000000003         -9.5958542078733444E-003
  0.16160000000000002         -4.9415645189583302E-003
  0.16270000000000001          3.0330724548548460E-003
  0.16380000000000000          5.9424615465104580E-003
  0.16490000000000005          1.3294775271788239E-003
  0.16600000000000004         -4.7507369890809059E-003
  0.16710000000000003         -4.3803090229630470E-003
  0.16820000000000002          3.2457099296152592E-003
  0.16930000000000001          1.0143730789422989E-002
  0.17040000000000000          7.8407218679785728E-003
  0.17150000000000004         -2.7443463914096355E-003
  0.17260000000000003         -1.1551506817340851E-002
  0.17370000000000002         -9.3416264280676842E-003
  0.17480000000000001          2.0706471987068653E-003
  0.17590000000000000          1.1135250329971313E-002
  0.17700000000000005          8.1064337864518166E-003
  0.17810000000000004         -4.5732739381492138E-003
  0.17920000000000003         -1.3885499909520149E-002
  0.18030000000000002         -9.5675587654113770E-003
  0.18140000000000001          4.9282275140285492E-003
  0.18250000000000000          1.5529862605035305E-002
  0.18360000000000004          1.1584060266613960E-002
  0.18470000000000003         -3.0910191126167774E-003
  0.18580000000000002         -1.3799609616398811E-002
  0.18690000000000001         -9.9689941853284836E-003
  0.18800000000000000          3.9761713705956936E-003
  0.18910000000000005          1.3220910914242268E-002
  0.19020000000000004          7.7995127066969872E-003
  0.19130000000000003         -6.9473278708755970E-003
  0.19240000000000002         -1.5781678259372711E-002
  0.19350000000000001         -9.2163374647498131E-003
  0.19460000000000005          6.5081557258963585E-003
  0.19570000000000004          1.5925560146570206E-002
  0.19680000000000003          1.0335776954889297E-002
  0.19790000000000002         -3.5337451845407486E-003
  0.19900000000000001         -1.1085733771324158E-002
  0.20010000000000000         -5.2306125871837139E-003
  0.20120000000000005          6.2806634232401848E-003
  0.20230000000000004          9.6432063728570938E-003
  0.20340000000000003          1.8640767666511238E-004
  0.20450000000000002         -1.2288134545087814E-002
  0.20560000000000000         -1.3985595665872097E-002
  0.20670000000000005         -2.0622175652533770E-003
  0.20780000000000004          1.1976097710430622E-002
  0.20890000000000003          1.4210772700607777E-002
