 -0.12000000000000000          0.0000000000000000
 -0.11889999999999999          0.0000000000000000
 -0.11780000000000000          0.0000000000000000
 -0.11670000000000000          0.0000000000000000
 -0.11559999999999999          0.0000000000000000
 -0.11449999999999999          0.0000000000000000
 -0.11340000000000000          1.8004143098257486E-012
 -0.11230000000000000          3.9959157510649490E-011
 -0.11119999999999999          2.8585528388802572E-010
 -0.11009999999999999          1.1047185388690650E-009
 -0.10900000000000000          2.6223798688107536E-009
 -0.10790000000000000          3.6438736472632627E-009
 -0.10679999999999999          1.4078977983444929E-009
 -0.10569999999999999         -5.1050093041737910E-009
 -0.10460000000000000         -9.0809626485111039E-009
 -0.10349999999999999          4.1329086819530403E-009
 -0.10239999999999999          4.0921264599091955E-008
 -0.10130000000000000          7.5559434264960146E-008
 -0.10020000000000000          5.1787726107477283E-008
  -9.9099999999999994E-002    -6.7695872019157832E-008
  -9.7999999999999990E-002    -2.4158092060133640E-007
  -9.6899999999999986E-002    -3.5545767218536639E-007
  -9.5799999999999996E-002    -2.8909411753375025E-007
  -9.4699999999999993E-002     8.2782960930671834E-008
  -9.3599999999999989E-002     9.8924238045583479E-007
  -9.2499999999999999E-002     2.5988808829424670E-006
  -9.1399999999999995E-002     4.1069174585572910E-006
  -9.0299999999999991E-002     2.6020682071248302E-006
  -8.9200000000000002E-002    -5.9566245909081772E-006
  -8.8099999999999984E-002    -2.1342457330320030E-005
  -8.6999999999999994E-002    -3.1609979487257078E-005
  -8.5899999999999990E-002    -1.3389993000600953E-005
  -8.4799999999999986E-002     4.9288617447018623E-005
  -8.3699999999999997E-002     1.3193431368563324E-004
  -8.2599999999999993E-002     1.5285539848264307E-004
  -8.1499999999999989E-002     1.4315632142825052E-005
  -8.0399999999999999E-002    -2.9187352629378438E-004
  -7.9299999999999995E-002    -5.8471434749662876E-004
  -7.8199999999999992E-002    -5.2672898164018989E-004
  -7.7100000000000002E-002     1.3597957149613649E-004
  -7.5999999999999984E-002     1.2306316057220101E-003
  -7.4899999999999994E-002     2.0070278551429510E-003
  -7.3799999999999991E-002     1.4721166808158159E-003
  -7.2699999999999987E-002    -8.0995965981855989E-004
  -7.1599999999999997E-002    -3.9483341388404369E-003
  -7.0499999999999993E-002    -5.7292543351650238E-003
  -6.9399999999999989E-002    -3.8034357130527496E-003
  -6.8300000000000000E-002     2.3928398732095957E-003
  -6.7199999999999996E-002     1.0260237380862236E-002
  -6.6099999999999992E-002     1.4552425593137741E-002
  -6.5000000000000002E-002     1.0155118070542812E-002
  -6.3899999999999985E-002    -4.0640728548169136E-003
  -6.2799999999999995E-002    -2.2673346102237701E-002
  -6.1699999999999991E-002    -3.4578189253807068E-002
  -6.0599999999999994E-002    -2.8104346245527267E-002
  -5.9499999999999990E-002     1.3436572626233101E-003
  -5.8399999999999994E-002     4.4781383126974106E-002
  -5.7299999999999990E-002     7.8985504806041718E-002
  -5.6199999999999986E-002     7.5154803693294525E-002
  -5.5099999999999996E-002     1.6247065737843513E-002
  -5.3999999999999992E-002    -8.4200248122215271E-002
  -5.2899999999999989E-002   -0.17487743496894836
  -5.1799999999999985E-002   -0.18397875130176544
  -5.0699999999999995E-002    -6.2573939561843872E-002
  -4.9599999999999991E-002    0.16477291285991669
  -4.8499999999999988E-002    0.37895733118057251
  -4.7399999999999998E-002    0.40935596823692322
  -4.6299999999999994E-002    0.14189094305038452
  -4.5199999999999990E-002   -0.36091935634613037
  -4.4099999999999986E-002   -0.82009500265121460
  -4.2999999999999997E-002   -0.85475516319274902
  -4.1899999999999993E-002   -0.23554813861846924
  -4.0799999999999989E-002    0.86053448915481567
  -3.9699999999999985E-002     1.7986711263656616
  -3.8599999999999995E-002     1.7734858989715576
  -3.7499999999999992E-002    0.35973188281059265
  -3.6399999999999988E-002    -1.9913649559020996
  -3.5299999999999984E-002    -3.9193856716156006
  -3.4199999999999994E-002    -3.8009021282196045
  -3.3099999999999991E-002   -0.85172313451766968
  -3.1999999999999987E-002     3.9692299365997314
  -3.0899999999999997E-002     7.9976277351379395
  -2.9799999999999993E-002     8.1455821990966797
  -2.8699999999999989E-002     2.9180598258972168
  -2.7599999999999986E-002    -6.0396156311035156
  -2.6499999999999996E-002    -14.094140052795410
  -2.5399999999999992E-002    -15.857874870300293
  -2.4299999999999988E-002    -8.5337915420532227
  -2.3199999999999985E-002     5.6161975860595703
  -2.2099999999999995E-002     19.551691055297852
  -2.0999999999999991E-002     24.923372268676758
  -1.9899999999999987E-002     17.122447967529297
  -1.8799999999999983E-002    -1.0936750173568726
  -1.7699999999999994E-002    -20.064573287963867
  -1.6599999999999990E-002    -28.262508392333984
  -1.5499999999999986E-002    -19.467121124267578
  -1.4399999999999996E-002     2.2121953964233398
  -1.3299999999999992E-002     23.146392822265625
  -1.2199999999999989E-002     27.395996093750000
  -1.1099999999999985E-002     6.8616685867309570
  -9.9999999999999950E-003    -31.568954467773438
  -8.8999999999999913E-003    -66.915122985839844
  -7.7999999999999875E-003    -73.802604675292969
  -6.6999999999999837E-003    -36.307426452636719
  -5.5999999999999939E-003     41.994113922119141
  -4.4999999999999901E-003     138.41159057617188
  -3.3999999999999864E-003     222.92837524414062
  -2.2999999999999826E-003     275.37313842773438
  -1.1999999999999927E-003     298.01437377929688
  -9.9999999999988987E-005     315.62283325195312
   1.0000000000000148E-003     362.32632446289062
   2.1000000000000185E-003     462.89981079101562
   3.2000000000000084E-003     620.12542724609375
   4.3000000000000121E-003     816.55358886718750
   5.4000000000000159E-003     1030.0297851562500
   6.5000000000000058E-003     1253.3106689453125
   7.6000000000000234E-003     1504.9648437500000
   8.7000000000000133E-003     1824.0030517578125
   9.8000000000000032E-003     2251.2639160156250
   1.0900000000000021E-002     2809.7561035156250
   1.2000000000000011E-002     3497.7155761718750
   1.3100000000000001E-002     4300.5170898437500
   1.4200000000000018E-002     5215.3422851562500
   1.5300000000000008E-002     6273.2890625000000
   1.6400000000000026E-002     7543.8090820312500
   1.7500000000000016E-002     9116.5478515625000
   1.8600000000000005E-002     11070.181640625000
   1.9700000000000023E-002     13447.635742187500
   2.0800000000000013E-002     16255.250976562500
   2.1900000000000003E-002     19490.271484375000
   2.3000000000000020E-002     23183.089843750000
   2.4100000000000010E-002     27429.632812500000
   2.5200000000000000E-002     32392.808593750000
   2.6300000000000018E-002     38268.914062500000
   2.7400000000000008E-002     45236.718750000000
   2.8500000000000025E-002     53419.339843750000
   2.9600000000000015E-002     62883.195312500000
   3.0700000000000005E-002     73677.109375000000
   3.1800000000000023E-002     85890.726562500000
   3.2900000000000013E-002     99697.320312500000
   3.4000000000000002E-002     115356.11718750000
   3.5100000000000020E-002     133172.20312500000
   3.6200000000000010E-002     153436.98437500000
   3.7300000000000028E-002     176383.85937500000
   3.8400000000000017E-002     202181.25000000000
   3.9500000000000007E-002     230967.21875000000
   4.0600000000000025E-002     262896.53125000000
   4.1700000000000015E-002     298177.37500000000
   4.2800000000000005E-002     337066.62500000000
   4.3900000000000022E-002     379835.37500000000
   4.5000000000000012E-002     426717.81250000000
   4.6100000000000002E-002     477874.50000000000
   4.7200000000000020E-002     533385.37500000000
   4.8300000000000010E-002     593273.43750000000
   4.9400000000000027E-002     657536.93750000000
   5.0500000000000017E-002     726168.25000000000
   5.1600000000000007E-002     799130.87500000000
   5.2700000000000025E-002     876319.12500000000
   5.3800000000000014E-002     957501.93750000000
   5.4900000000000004E-002     1042303.5000000000
   5.6000000000000022E-002     1130212.1250000000
   5.7100000000000012E-002     1220610.5000000000
   5.8200000000000002E-002     1312820.5000000000
   5.9300000000000019E-002     1406105.3750000000
   6.0400000000000009E-002     1499633.0000000000
   6.1500000000000027E-002     1592434.2500000000
   6.2600000000000017E-002     1683368.0000000000
   6.3700000000000007E-002     1771110.5000000000
   6.4800000000000024E-002     1854193.8750000000
   6.5900000000000014E-002     1931054.7500000000
   6.7000000000000004E-002     2000066.8750000000
   6.8100000000000022E-002     2059570.5000000000
   6.9200000000000012E-002     2107859.7500000000
   7.0300000000000029E-002     2143193.2500000000
   7.1400000000000019E-002     2163785.7500000000
   7.2500000000000009E-002     2167823.5000000000
   7.3600000000000027E-002     2153515.7500000000
   7.4700000000000016E-002     2119143.2500000000
   7.5800000000000006E-002     2063106.7500000000
   7.6900000000000024E-002     1983946.8750000000
   7.8000000000000014E-002     1880435.5000000000
   7.9100000000000004E-002     1751542.0000000000
   8.0200000000000021E-002     1596484.1250000000
   8.1300000000000011E-002     1414739.1250000000
   8.2400000000000029E-002     1206119.8750000000
   8.3500000000000019E-002     970766.18750000000
   8.4600000000000009E-002     709251.50000000000
   8.5700000000000026E-002     422524.62500000000
   8.6800000000000016E-002     111956.33593750000
   8.7900000000000006E-002    -220704.59375000000
   8.9000000000000024E-002    -573263.68750000000
   9.0100000000000013E-002    -943143.43750000000
   9.1200000000000003E-002    -1327370.7500000000
   9.2300000000000021E-002    -1722551.6250000000
   9.3400000000000011E-002    -2124963.5000000000
   9.4500000000000028E-002    -2530587.7500000000
   9.5600000000000018E-002    -2935153.7500000000
   9.6700000000000008E-002    -3334186.0000000000
   9.7800000000000026E-002    -3723041.5000000000
   9.8900000000000016E-002    -4097020.2500000000
  0.10000000000000001         -4451402.0000000000
  0.10110000000000002         -4781563.0000000000
  0.10220000000000001         -5083050.0000000000
  0.10330000000000003         -5351628.5000000000
  0.10440000000000002         -5583331.0000000000
  0.10550000000000001         -5774568.0000000000
  0.10660000000000003         -5922172.5000000000
  0.10770000000000002         -6023468.5000000000
  0.10880000000000001         -6076348.5000000000
  0.10990000000000003         -6079278.0000000000
  0.11100000000000002         -6031349.5000000000
  0.11210000000000001         -5932311.0000000000
  0.11320000000000002         -5782611.5000000000
  0.11430000000000001         -5583391.0000000000
  0.11540000000000003         -5336450.0000000000
  0.11650000000000002         -5044219.0000000000
  0.11760000000000001         -4709699.0000000000
  0.11870000000000003         -4336440.0000000000
  0.11980000000000002         -3928481.5000000000
  0.12090000000000001         -3490336.7500000000
  0.12200000000000003         -3026882.5000000000
  0.12310000000000001         -2543305.2500000000
  0.12420000000000003         -2044961.5000000000
  0.12530000000000002         -1537346.3750000000
  0.12640000000000001         -1026046.1250000000
  0.12750000000000003         -516563.78125000000
  0.12860000000000002         -14316.580078125000
  0.12970000000000001          475560.18750000000
  0.13080000000000003          948256.75000000000
  0.13190000000000002          1399299.5000000000
  0.13300000000000001          1824612.0000000000
  0.13410000000000000          2220475.7500000000
  0.13520000000000004          2583715.0000000000
  0.13630000000000003          2911699.0000000000
  0.13740000000000002          3202432.5000000000
  0.13850000000000001          3454473.7500000000
  0.13960000000000000          3666864.5000000000
  0.14070000000000005          3839192.5000000000
  0.14180000000000004          3971562.5000000000
  0.14290000000000003          4064635.0000000000
  0.14400000000000002          4119576.2500000000
  0.14510000000000001          4137915.2500000000
  0.14620000000000000          4121545.7500000000
  0.14730000000000004          4072682.5000000000
  0.14840000000000003          3993866.2500000000
  0.14950000000000002          3887907.7500000000
  0.15060000000000001          3757802.5000000000
  0.15170000000000000          3606590.5000000000
  0.15280000000000005          3437255.2500000000
  0.15390000000000004          3252763.2500000000
  0.15500000000000003          3056133.7500000000
  0.15610000000000002          2850403.0000000000
  0.15720000000000001          2638543.0000000000
  0.15830000000000000          2423258.0000000000
  0.15940000000000004          2207026.5000000000
  0.16050000000000003          1992056.1250000000
  0.16160000000000002          1780424.8750000000
  0.16270000000000001          1574065.1250000000
  0.16380000000000000          1374676.5000000000
  0.16490000000000005          1183613.3750000000
  0.16600000000000004          1001867.8125000000
  0.16710000000000003          830272.31250000000
  0.16820000000000002          669543.81250000000
  0.16930000000000001          520322.06250000000
  0.17040000000000000          382993.81250000000
  0.17150000000000004          257632.68750000000
  0.17260000000000003          144024.65625000000
  0.17370000000000002          41837.167968750000
  0.17480000000000001         -49276.777343750000
  0.17590000000000000         -129552.42187500000
  0.17700000000000005         -199353.37500000000
  0.17810000000000004         -259263.01562500000
  0.17920000000000003         -310051.28125000000
  0.18030000000000002         -352493.71875000000
  0.18140000000000001         -387271.25000000000
  0.18250000000000000         -414931.00000000000
  0.18360000000000004         -435967.15625000000
  0.18470000000000003         -451061.12500000000
  0.18580000000000002         -461002.21875000000
  0.18690000000000001         -466517.15625000000
  0.18800000000000000         -468162.18750000000
  0.18910000000000005         -466294.37500000000
  0.19020000000000004         -461245.12500000000
  0.19130000000000003         -453484.15625000000
  0.19240000000000002         -443579.37500000000
  0.19350000000000001         -432049.43750000000
  0.19460000000000005         -419193.18750000000
  0.19570000000000004         -405122.37500000000
  0.19680000000000003         -389928.87500000000
  0.19790000000000002         -373857.65625000000
  0.19900000000000001         -357276.68750000000
  0.20010000000000000         -340477.84375000000
  0.20120000000000005         -323602.06250000000
  0.20230000000000004         -306609.15625000000
  0.20340000000000003         -289478.59375000000
  0.20450000000000002         -272333.12500000000
  0.20560000000000000         -255406.92187500000
  0.20670000000000005         -238914.35937500000
  0.20780000000000004         -222905.84375000000
  0.20890000000000003         -207295.98437500000
