 -0.12000000000000000          0.0000000000000000
 -0.11889999999999999          0.0000000000000000
 -0.11780000000000000          0.0000000000000000
 -0.11670000000000000          0.0000000000000000
 -0.11559999999999999          0.0000000000000000
 -0.11449999999999999          0.0000000000000000
 -0.11340000000000000          1.6406392574792357E-013
 -0.11230000000000000         -3.5027688215225923E-013
 -0.11119999999999999         -5.3643894881716351E-012
 -0.11009999999999999         -1.0412852004260540E-011
 -0.10900000000000000          2.5130696135187762E-011
 -0.10790000000000000          1.4238607515259968E-010
 -0.10679999999999999          1.7773008065270324E-010
 -0.10569999999999999         -3.8369271648793780E-010
 -0.10460000000000000         -1.7580172873010356E-009
 -0.10349999999999999         -2.2259876164554933E-009
 -0.10239999999999999          2.2285662204521047E-009
 -0.10130000000000000          1.3040478918923758E-008
 -0.10020000000000000          1.9815955099034049E-008
  -9.9099999999999994E-002    -6.5369176738104637E-010
  -9.7999999999999990E-002    -6.0259729650621235E-008
  -9.6899999999999986E-002    -1.1726059057082016E-007
  -9.5799999999999996E-002    -6.8009676112983701E-008
  -9.4699999999999993E-002     1.6435296856796707E-007
  -9.3599999999999989E-002     4.6813201493021571E-007
  -9.2499999999999999E-002     4.8265917484968795E-007
  -9.1399999999999995E-002    -1.5018365218107005E-007
  -9.0299999999999991E-002    -1.2679674910031424E-006
  -8.9200000000000002E-002    -1.8908299352914975E-006
  -8.8099999999999984E-002    -7.7296158451651035E-007
  -8.6999999999999994E-002     2.2044023353371612E-006
  -8.5899999999999990E-002     4.9615287025514870E-006
  -8.4799999999999986E-002     4.1227967813028310E-006
  -8.3699999999999997E-002    -1.8006173831960655E-006
  -8.2599999999999993E-002    -9.3532880782725778E-006
  -8.1499999999999989E-002    -1.1074494977946816E-005
  -8.0399999999999999E-002    -1.8200674958280517E-006
  -7.9299999999999995E-002     1.3912021131544943E-005
  -7.8199999999999992E-002     2.1840152840012494E-005
  -7.7100000000000002E-002     9.1412493929959526E-006
  -7.5999999999999984E-002    -1.9986022380180206E-005
  -7.4899999999999994E-002    -4.0349761547985293E-005
  -7.3799999999999991E-002    -2.3922251784823984E-005
  -7.2699999999999987E-002     2.9703100153710514E-005
  -7.1599999999999997E-002     7.9200755862984346E-005
  -7.0499999999999993E-002     6.7227992985864065E-005
  -6.9399999999999989E-002    -2.4530030714228775E-005
  -6.8300000000000000E-002    -1.3833332923240689E-004
  -6.7199999999999996E-002    -1.6857788432389647E-004
  -6.6099999999999992E-002    -5.0865961384269402E-005
  -6.5000000000000002E-002     1.5843175060580164E-004
  -6.3899999999999985E-002     2.9706381610593893E-004
  -6.2799999999999995E-002     2.2128492128104592E-004
  -6.1699999999999991E-002    -5.2658673666860736E-005
  -6.0599999999999994E-002    -3.2595632364970547E-004
  -5.9499999999999990E-002    -3.6560674197970113E-004
  -5.8399999999999994E-002    -1.1674549750751772E-004
  -5.7299999999999990E-002     2.1711392037101386E-004
  -5.6199999999999986E-002     3.3218212774950410E-004
  -5.5099999999999996E-002     1.0919665510297512E-004
  -5.3999999999999992E-002    -2.3753025743645113E-004
  -5.2899999999999989E-002    -3.2377507886847338E-004
  -5.1799999999999985E-002     3.4412365494097222E-005
  -5.0699999999999995E-002     5.8083346812058559E-004
  -4.9599999999999991E-002     7.7887799125169258E-004
  -4.8499999999999988E-002     2.8769127675336666E-004
  -4.7399999999999998E-002    -6.5943732624870830E-004
  -4.6299999999999994E-002    -1.3609570451081027E-003
  -4.5199999999999990E-002    -1.2085345806554903E-003
  -4.4099999999999986E-002    -2.3065441928353289E-004
  -4.2999999999999997E-002     8.9161464711636754E-004
  -4.1899999999999993E-002     1.3896570308133389E-003
  -4.0799999999999989E-002     1.0552423773334263E-003
  -3.9699999999999985E-002     3.6614623968510447E-004
  -3.8599999999999995E-002    -3.4295422665052978E-005
  -3.7499999999999992E-002     6.6251391219491396E-006
  -3.6399999999999988E-002     2.5841562092014567E-005
  -3.5299999999999984E-002    -4.9944152124236025E-004
  -3.4199999999999994E-002    -1.4723453205081102E-003
  -3.3099999999999991E-002    -2.1084949839863107E-003
  -3.1999999999999987E-002    -1.6298663103955821E-003
  -3.0899999999999997E-002    -7.2062699473659226E-005
  -2.9799999999999993E-002     1.6305858734994721E-003
  -2.8699999999999989E-002     2.4383889976890456E-003
  -2.7599999999999986E-002     2.1281656809154534E-003
  -2.6499999999999996E-002     1.4027851866562492E-003
  -2.5399999999999992E-002     1.0424038628120199E-003
  -2.4299999999999988E-002     9.7304675728106596E-004
  -2.3199999999999985E-002     2.9664515750484278E-004
  -2.2099999999999995E-002    -1.6312805237250680E-003
  -2.0999999999999991E-002    -4.1590966284279123E-003
  -1.9899999999999987E-002    -5.5446010082965489E-003
  -1.8799999999999983E-002    -4.4387229718273608E-003
  -1.7699999999999994E-002    -1.2921679299329426E-003
  -1.6599999999999990E-002     1.7943774582815943E-003
  -1.5499999999999986E-002     2.8278650715948274E-003
  -1.4399999999999996E-002     1.6861535841603114E-003
  -1.3299999999999992E-002     1.2008006888259547E-004
  -1.2199999999999989E-002    -1.1797268962217045E-004
  -1.1099999999999985E-002     7.9347443534070160E-004
  -9.9999999999999950E-003     7.7495968434938714E-004
  -8.8999999999999913E-003    -2.0193487871442324E-003
  -7.7999999999999875E-003    -7.0173186250036086E-003
  -6.6999999999999837E-003    -1.1298877187073850E-002
  -5.5999999999999939E-003    -1.2098594568670618E-002
  -4.4999999999999901E-003    -9.4276582822214617E-003
  -3.3999999999999864E-003    -6.1975913122309509E-003
  -2.2999999999999826E-003    -5.5851917713894122E-003
  -1.1999999999999927E-003    -8.1456657499086940E-003
  -9.9999999999988987E-005    -1.1547614820302489E-002
   1.0000000000000148E-003    -1.3239125721157399E-002
   2.1000000000000185E-003    -1.3361543416977808E-002
   3.2000000000000084E-003    -1.4874614775182069E-002
   4.3000000000000121E-003    -2.0633377134801869E-002
   5.4000000000000159E-003    -3.0339945107701254E-002
   6.5000000000000058E-003    -4.0554370731119213E-002
   7.6000000000000234E-003    -4.7913484275345981E-002
   8.7000000000000133E-003    -5.2362911403185039E-002
   9.8000000000000032E-003    -5.7061783969408870E-002
   1.0900000000000021E-002    -6.5009959042079374E-002
   1.2000000000000011E-002    -7.5900666415699009E-002
   1.3100000000000001E-002    -8.6576968431481230E-002
   1.4200000000000018E-002    -9.4767756760130009E-002
   1.5300000000000008E-002   -0.10213881731034428
   1.6400000000000026E-002   -0.11321630328894919
   1.7500000000000016E-002   -0.13095180690289965
   1.8600000000000005E-002   -0.15344199538232506
   1.9700000000000023E-002   -0.17542318999769135
   2.0800000000000013E-002   -0.19330038130285448
   2.1900000000000003E-002   -0.20862427353861313
   2.3000000000000020E-002   -0.22619944810869932
   2.4100000000000010E-002   -0.24847368896010388
   2.5200000000000000E-002   -0.27207300066950996
   2.6300000000000018E-002   -0.29051813483241495
   2.7400000000000008E-002   -0.30070215463641820
   2.8500000000000025E-002   -0.30656129121784165
   2.9600000000000015E-002   -0.31552171707157339
   3.0700000000000005E-002   -0.33066707849506816
   3.1800000000000023E-002   -0.34635666012768423
   3.2900000000000013E-002   -0.35193675756459070
   3.4000000000000002E-002   -0.34045782685284554
   3.5100000000000020E-002   -0.31384670734410247
   3.6200000000000010E-002   -0.27931362390522835
   3.7300000000000028E-002   -0.24016454815869015
   3.8400000000000017E-002   -0.19067358970646228
   3.9500000000000007E-002   -0.12025877833370099
   4.0600000000000025E-002    -2.2883329540522298E-002
   4.1700000000000015E-002     9.7885638475394721E-002
   4.2800000000000005E-002    0.23380877077578169
   4.3900000000000022E-002    0.38173374533653159
   4.5000000000000012E-002    0.54895180463792237
   4.6100000000000002E-002    0.74819529056552048
   4.7200000000000020E-002    0.98666095733647419
   4.8300000000000010E-002     1.2604619264603363
   4.9400000000000027E-002     1.5607831478119851
   5.0500000000000017E-002     1.8846015930177029
   5.1600000000000007E-002     2.2387497425080922
   5.2700000000000025E-002     2.6329874992372537
   5.3800000000000014E-002     3.0681309700014525
   5.4900000000000004E-002     3.5329213142397755
   5.6000000000000022E-002     4.0116438865664801
   5.7100000000000012E-002     4.4970774650577381
   5.8200000000000002E-002     4.9955620765690183
   5.9300000000000019E-002     5.5163898468022241
   6.0400000000000009E-002     6.0582957267766417
   6.1500000000000027E-002     6.6051502227788923
   6.2600000000000017E-002     7.1363081932074133
   6.3700000000000007E-002     7.6414618492133259
   6.4800000000000024E-002     8.1230401992805170
   6.5900000000000014E-002     8.5839748382576175
   6.7000000000000004E-002     9.0134992599495600
   6.8100000000000022E-002     9.3851652145394464
   6.9200000000000012E-002     9.6710395812997376
   7.0300000000000029E-002     9.8587989807138303
   7.1400000000000019E-002     9.9545259475717636
   7.2500000000000009E-002     9.9660530090341801
   7.3600000000000027E-002     9.8847570419321311
   7.4700000000000016E-002     9.6837511062631787
   7.5800000000000006E-002     9.3345899581918719
   7.6900000000000024E-002     8.8262825012216268
   7.8000000000000014E-002     8.1700010299691392
   7.9100000000000004E-002     7.3789992332466676
   8.0200000000000021E-002     6.4498324394233508
   8.1300000000000011E-002     5.3604493141180845
   8.2400000000000029E-002     4.0912418365484005
   8.3500000000000019E-002     2.6428699493412497
   8.4600000000000009E-002     1.0394035577776990
   8.5700000000000026E-002   -0.69462215900406821
   8.6800000000000016E-002    -2.5532884597778551
   8.7900000000000006E-002    -4.5521993637086995
   8.9000000000000024E-002    -6.7015953063968805
   9.0100000000000013E-002    -8.9865989685064598
   9.1200000000000003E-002    -11.368735313416341
   9.2300000000000021E-002    -13.810353279114807
   9.3400000000000011E-002    -16.301322937012991
   9.4500000000000028E-002    -18.856170654298385
   9.5600000000000018E-002    -21.484567642213666
   9.6700000000000008E-002    -24.167045593263719
   9.7800000000000026E-002    -26.859029769899710
   9.8900000000000016E-002    -29.520170211794490
  0.10000000000000001         -32.140857696535953
  0.10110000000000002         -34.737922668460030
  0.10220000000000001         -37.325504302981756
  0.10330000000000003         -39.886192321780818
  0.10440000000000002         -42.377460479740037
  0.10550000000000001         -44.762275695804718
  0.10660000000000003         -47.038295745853766
  0.10770000000000002         -49.229324340824675
  0.10880000000000001         -51.352176666264327
  0.10990000000000003         -53.388916015629754
  0.11100000000000002         -55.290363311772502
  0.11210000000000001         -57.014774322514860
  0.11320000000000002         -58.556861877446650
  0.11430000000000001         -59.939567565923348
  0.11540000000000003         -61.174606323247687
  0.11650000000000002         -62.228897094732162
  0.11760000000000001         -63.031501770025216
  0.11870000000000003         -63.515056610113163
  0.11980000000000002         -63.648578643804605
  0.12090000000000001         -63.433101654058518
  0.12200000000000003         -62.856597900396380
  0.12310000000000001         -61.861606597906075
  0.12420000000000003         -60.352386474614953
  0.12530000000000002         -58.241748809819882
  0.12640000000000001         -55.480655670171238
  0.12750000000000003         -52.056762695317467
  0.12860000000000002         -47.942607879643319
  0.12970000000000001         -43.075485229496444
  0.13080000000000003         -37.353610992435435
  0.13190000000000002         -30.691329956057949
  0.13300000000000001         -23.059425354006553
  0.13410000000000000         -14.484444618227048
  0.13520000000000004         -4.9868927001964787
  0.13630000000000003          5.4515352249142577
  0.13740000000000002          16.866781234741879
  0.13850000000000001          29.264326095582767
  0.13960000000000000          42.575408935549717
  0.14070000000000005          56.684104919437644
  0.14180000000000004          71.454879760747517
  0.14290000000000003          86.789253234869946
  0.14400000000000002          102.60987091065260
  0.14510000000000001          118.78845214844701
  0.14620000000000000          135.12156677247191
  0.14730000000000004          151.36401367188742
  0.14840000000000003          167.26110839845140
  0.14950000000000002          182.60888671876532
  0.15060000000000001          197.22814941407921
  0.15170000000000000          210.88983154298677
  0.15280000000000005          223.31687927248015
  0.15390000000000004          234.19943237306720
  0.15500000000000003          243.25415039064626
  0.15610000000000002          250.28799438478768
  0.15720000000000001          255.14082336428049
  0.15830000000000000          257.64624023439808
  0.15940000000000004          257.59799194338262
  0.16050000000000003          254.80130004885135
  0.16160000000000002          249.13267517092135
  0.16270000000000001          240.55993652345987
  0.16380000000000000          229.12382507326376
  0.16490000000000005          214.86769104005955
  0.16600000000000004          197.82939147951134
  0.16710000000000003          178.06552124025194
  0.16820000000000002          155.71968078614856
  0.16930000000000001          131.04336547852932
  0.17040000000000000          104.34641265870285
  0.17150000000000004          75.945129394540245
  0.17260000000000003          46.132007598883355
  0.17370000000000002          15.208975791934838
  0.17480000000000001         -16.460382461546974
  0.17590000000000000         -48.433994293214873
  0.17700000000000005         -80.238792419438468
  0.17810000000000004         -111.44140625000773
  0.17920000000000003         -141.66456604004961
  0.18030000000000002         -170.55468750001324
  0.18140000000000001         -197.74473571778927
  0.18250000000000000         -222.83717346193231
  0.18360000000000004         -245.45614624025487
  0.18470000000000003         -265.30767822267876
  0.18580000000000002         -282.18200683596172
  0.18690000000000001         -295.91723632815069
  0.18800000000000000         -306.37164306643314
  0.18910000000000005         -313.41055297854342
  0.19020000000000004         -316.95568847659086
  0.19130000000000003         -317.02212524416922
  0.19240000000000002         -313.71179199221609
  0.19350000000000001         -307.17465209963757
  0.19460000000000005         -297.56707763674632
  0.19570000000000004         -285.06689453127666
  0.19680000000000003         -269.89428710940047
  0.19790000000000002         -252.33149719240689
  0.19900000000000001         -232.72500610353808
  0.20010000000000000         -211.42675781252066
  0.20120000000000005         -188.75570678712808
  0.20230000000000004         -165.02462768556350
  0.20340000000000003         -140.57788085938947
  0.20450000000000002         -115.78312683106695
  0.20560000000000000         -91.002685546885019
  0.20670000000000005         -66.567512512214819
  0.20780000000000004         -42.740379333501686
  0.20890000000000003         -19.765871047977082
