 -0.12000000000000000          0.0000000000000000
 -0.11889999999999999          0.0000000000000000
 -0.11780000000000000          0.0000000000000000
 -0.11670000000000000          0.0000000000000000
 -0.11559999999999999          0.0000000000000000
 -0.11449999999999999          0.0000000000000000
 -0.11340000000000000          0.0000000000000000
 -0.11230000000000000          0.0000000000000000
 -0.11119999999999999          0.0000000000000000
 -0.11009999999999999          0.0000000000000000
 -0.10900000000000000         -5.9352378416776707E-026
 -0.10790000000000000         -2.8590140980862463E-025
 -0.10679999999999999          1.4471358469516135E-024
 -0.10569999999999999          1.4697592535865622E-023
 -0.10460000000000000          2.9786299153096201E-023
 -0.10349999999999999         -1.1889933706722000E-022
 -0.10239999999999999         -7.9638676447456509E-022
 -0.10130000000000000         -1.4134349762287909E-021
 -0.10020000000000000          2.5787448492600837E-021
  -9.9099999999999994E-002     1.8271886587542197E-020
  -9.7999999999999990E-002     3.3014519849921671E-020
  -9.6899999999999986E-002    -2.5311083740443358E-020
  -9.5799999999999996E-002    -2.5253669004879081E-019
  -9.4699999999999993E-002    -4.9503058028057532E-019
  -9.3599999999999989E-002     4.4615879806168470E-020
  -9.2499999999999999E-002     2.4036253530644974E-018
  -9.1399999999999995E-002     5.4017342454325864E-018
  -9.0299999999999991E-002     2.3576560312927818E-018
  -8.9200000000000002E-002    -1.6086848079892447E-017
  -8.8099999999999984E-002    -4.4590960938516522E-017
  -8.6999999999999994E-002    -3.9306031213021323E-017
  -8.5899999999999990E-002     6.9911637776866992E-017
  -8.4799999999999986E-002     2.7995849746007397E-016
  -8.3699999999999997E-002     3.6454625159754259E-016
  -8.2599999999999993E-002    -1.0884904091298773E-016
  -8.1499999999999989E-002    -1.3139323308574476E-015
  -8.0399999999999999E-002    -2.3563510033296079E-015
  -7.9299999999999995E-002    -1.0585301920410027E-015
  -7.8199999999999992E-002     4.2937108065527717E-015
  -7.7100000000000002E-002     1.1252409187799753E-014
  -7.5999999999999984E-002     1.0958116060605719E-014
  -7.4899999999999994E-002    -6.8507499613500514E-015
  -7.3799999999999991E-002    -3.9675565350477671E-014
  -7.2699999999999987E-002    -5.9077905328192015E-014
  -7.1599999999999997E-002    -1.9779208652870306E-014
  -7.0499999999999993E-002     9.5598767617388614E-014
  -6.9399999999999989E-002     2.1962790473003396E-013
  -6.8300000000000000E-002     1.9770517417205119E-013
  -6.7199999999999996E-002    -9.8796981067104245E-014
  -6.6099999999999992E-002    -5.7879222248313766E-013
  -6.5000000000000002E-002    -8.3344117197958756E-013
  -6.3899999999999985E-002    -3.4851958016605955E-013
  -6.2799999999999995E-002     9.6499544466333020E-013
  -6.1699999999999991E-002     2.3072984495220439E-012
  -6.0599999999999994E-002     2.2081965162651374E-012
  -5.9499999999999990E-002    -3.0709576591750332E-013
  -5.8399999999999994E-002    -4.2728915024270453E-012
  -5.7299999999999990E-002    -6.5264247998964020E-012
  -5.6199999999999986E-002    -3.7176030483199174E-012
  -5.5099999999999996E-002     4.2420871503023871E-012
  -5.3999999999999992E-002     1.2257888280797768E-011
  -5.2899999999999989E-002     1.2636109172903254E-011
  -5.1799999999999985E-002     1.7669315446541822E-012
  -5.0699999999999995E-002    -1.4304999025605003E-011
  -4.9599999999999991E-002    -2.2083451386989417E-011
  -4.8499999999999988E-002    -1.1865098313579292E-011
  -4.7399999999999998E-002     1.0330908004063666E-011
  -4.6299999999999994E-002     2.3405425167433158E-011
  -4.5199999999999990E-002     9.6604486563012237E-012
  -4.4099999999999986E-002    -2.1871955635521800E-011
  -4.2999999999999997E-002    -3.2762979829126238E-011
  -4.1899999999999993E-002     1.2191782305936982E-011
  -4.0799999999999989E-002     9.6375074587484733E-011
  -3.9699999999999985E-002     1.3588362379746144E-010
  -3.8599999999999995E-002     3.5510473034294776E-011
  -3.7499999999999992E-002    -2.0583337811963531E-010
  -3.6399999999999988E-002    -4.2999662164255881E-010
  -3.5299999999999984E-002    -3.8876182828495587E-010
  -3.4199999999999994E-002     5.3326135174280864E-011
  -3.3099999999999991E-002     7.2237488213389156E-010
  -3.1999999999999987E-002     1.1434048152736409E-009
  -3.0899999999999997E-002     8.3607903933469174E-010
  -2.9799999999999993E-002    -2.6338486946997364E-010
  -2.8699999999999989E-002    -1.5941143960418458E-009
  -2.7599999999999986E-002    -2.2330632898359681E-009
  -2.6499999999999996E-002    -1.5350128945712527E-009
  -2.5399999999999992E-002     3.0603269918216824E-010
  -2.4299999999999988E-002     2.2671213795177891E-009
  -2.3199999999999985E-002     3.1654823207105665E-009
  -2.2099999999999995E-002     2.5051358765182385E-009
  -2.0999999999999991E-002     7.9232137517593060E-010
  -1.9899999999999987E-002    -9.8753016875008370E-010
  -1.8799999999999983E-002    -2.2735413551799866E-009
  -1.7699999999999994E-002    -3.3125648890575121E-009
  -1.6599999999999990E-002    -4.5182937391530231E-009
  -1.5499999999999986E-002    -5.3333670813060507E-009
  -1.4399999999999996E-002    -3.8769734089783014E-009
  -1.3299999999999992E-002     1.7297993037956871E-009
  -1.2199999999999989E-002     1.0956002327588976E-008
  -1.1099999999999985E-002     1.9391146466318787E-008
  -9.9999999999999950E-003     2.0175368931063531E-008
  -8.8999999999999913E-003     8.3537630146679476E-009
  -7.7999999999999875E-003    -1.4391162039828487E-008
  -6.6999999999999837E-003    -3.8280955294567320E-008
  -5.5999999999999939E-003    -4.9299270443725618E-008
  -4.4999999999999901E-003    -3.6897965571824898E-008
  -3.3999999999999864E-003    -1.1350578255076016E-009
  -2.2999999999999826E-003     4.5300684092808297E-008
  -1.1999999999999927E-003     8.1807975504943897E-008
  -9.9999999999988987E-005     8.9026649163770344E-008
   1.0000000000000148E-003     5.7824735222311574E-008
   2.1000000000000185E-003    -5.9031317611868417E-009
   3.2000000000000084E-003    -8.2155764857816393E-008
   4.3000000000000121E-003    -1.4262403169595927E-007
   5.4000000000000159E-003    -1.5951928844515351E-007
   6.5000000000000058E-003    -1.1551725975778027E-007
   7.6000000000000234E-003    -1.2585831044020779E-008
   8.7000000000000133E-003     1.2345869038199453E-007
   9.8000000000000032E-003     2.4622374894534005E-007
   1.0900000000000021E-002     3.0169877618391183E-007
   1.2000000000000011E-002     2.4868273840183974E-007
   1.3100000000000001E-002     7.9790211771069153E-008
   1.4200000000000018E-002    -1.6632239407954330E-007
   1.5300000000000008E-002    -4.0921906929725083E-007
   1.6400000000000026E-002    -5.4956535677774809E-007
   1.7500000000000016E-002    -5.0529422424006043E-007
   1.8600000000000005E-002    -2.4914922391872096E-007
   1.9700000000000023E-002     1.6743136654895352E-007
   2.0800000000000013E-002     6.1696601960647968E-007
   2.1900000000000003E-002     9.3003313850203995E-007
   2.3000000000000020E-002     9.5371922270715004E-007
   2.4100000000000010E-002     6.1559080677398015E-007
   2.5200000000000000E-002    -3.1493115670855332E-008
   2.6300000000000018E-002    -8.0474853803025326E-007
   2.7400000000000008E-002    -1.4355543953570304E-006
   2.8500000000000025E-002    -1.6542095409022295E-006
   2.9600000000000015E-002    -1.2922004088977701E-006
   3.0700000000000005E-002    -3.6886871157548740E-007
   3.1800000000000023E-002     8.7335831722157309E-007
   3.2900000000000013E-002     2.0134930309723131E-006
   3.4000000000000002E-002     2.5826316232269164E-006
   3.5100000000000020E-002     2.2506226287077880E-006
   3.6200000000000010E-002     9.9926273833261803E-007
   3.7300000000000028E-002    -8.0608299413142959E-007
   3.8400000000000017E-002    -2.5090557755902410E-006
   3.9500000000000007E-002    -3.4098698051820975E-006
   4.0600000000000025E-002    -3.0714465992787154E-006
   4.1700000000000015E-002    -1.5376291457869229E-006
   4.2800000000000005E-002     6.5518537439857027E-007
   4.3900000000000022E-002     2.6905224785878090E-006
   4.5000000000000012E-002     3.8068239973654272E-006
   4.6100000000000002E-002     3.5900250168197090E-006
   4.7200000000000020E-002     2.0927234345435863E-006
   4.8300000000000010E-002    -2.4255194830402615E-007
   4.9400000000000027E-002    -2.7691194190992974E-006
   5.0500000000000017E-002    -4.8073047764773946E-006
   5.1600000000000007E-002    -5.7331903917656746E-006
   5.2700000000000025E-002    -5.0176199692941736E-006
   5.3800000000000014E-002    -2.3110610527510289E-006
   5.4900000000000004E-002     2.3611396500200499E-006
   5.6000000000000022E-002     8.3416052802931517E-006
   5.7100000000000012E-002     1.4187964552547783E-005
   5.8200000000000002E-002     1.7817466869018972E-005
   5.9300000000000019E-002     1.7030786693794653E-005
   6.0400000000000009E-002     1.0282887160428800E-005
   6.1500000000000027E-002    -2.6321686164010316E-006
   6.2600000000000017E-002    -2.0369820049381815E-005
   6.3700000000000007E-002    -4.0519684262108058E-005
   6.4800000000000024E-002    -6.0675640270346776E-005
   6.5900000000000014E-002    -7.9645586083643138E-005
   6.7000000000000004E-002    -9.8220501968171448E-005
   6.8100000000000022E-002    -1.1910102330148220E-004
   6.9200000000000012E-002    -1.4600562280975282E-004
   7.0300000000000029E-002    -1.8242892110720277E-004
   7.1400000000000019E-002    -2.3071577015798539E-004
   7.2500000000000009E-002    -2.9193857335485518E-004
   7.3600000000000027E-002    -3.6661105696111917E-004
   7.4700000000000016E-002    -4.5581642189063132E-004
   7.5800000000000006E-002    -5.6214729556813836E-004
   7.6900000000000024E-002    -6.9003936368972063E-004
   7.8000000000000014E-002    -8.4549188613891602E-004
   7.9100000000000004E-002    -1.0355281410738826E-003
   8.0200000000000021E-002    -1.2678443454205990E-003
   8.1300000000000011E-002    -1.5508969081565738E-003
   8.2400000000000029E-002    -1.8943570321425796E-003
   8.3500000000000019E-002    -2.3096238728612661E-003
   8.4600000000000009E-002    -2.8100861236453056E-003
   8.5700000000000026E-002    -3.4110385458916426E-003
   8.6800000000000016E-002    -4.1294363327324390E-003
   8.7900000000000006E-002    -4.9838367849588394E-003
   8.9000000000000024E-002    -5.9948065318167210E-003
   9.0100000000000013E-002    -7.1858167648315430E-003
   9.1200000000000003E-002    -8.5843447595834732E-003
   9.2300000000000021E-002    -1.0222746990621090E-002
   9.3400000000000011E-002    -1.2138554826378822E-002
   9.4500000000000028E-002    -1.4374163001775742E-002
   9.5600000000000018E-002    -1.6976213082671165E-002
   9.6700000000000008E-002    -1.9995158538222313E-002
   9.7800000000000026E-002    -2.3485297337174416E-002
   9.8900000000000016E-002    -2.7505267411470413E-002
  0.10000000000000001         -3.2118510454893112E-002
  0.10110000000000002         -3.7393271923065186E-002
  0.10220000000000001         -4.3402235954999924E-002
  0.10330000000000003         -5.0222016870975494E-002
  0.10440000000000002         -5.7932835072278976E-002
  0.10550000000000001         -6.6618651151657104E-002
  0.10660000000000003         -7.6367303729057312E-002
  0.10770000000000002         -8.7270013988018036E-002
  0.10880000000000001         -9.9419541656970978E-002
  0.10990000000000003        -0.11290724575519562
  0.11100000000000002        -0.12781992554664612
  0.11210000000000001        -0.14423722028732300
  0.11320000000000002        -0.16222980618476868
  0.11430000000000001        -0.18185865879058838
  0.11540000000000003        -0.20317456126213074
  0.11650000000000002        -0.22621585428714752
  0.11760000000000001        -0.25100481510162354
  0.11870000000000003        -0.27754279971122742
  0.11980000000000002        -0.30580437183380127
  0.12090000000000001        -0.33573251962661743
  0.12200000000000003        -0.36723577976226807
  0.12310000000000001        -0.40018633008003235
  0.12420000000000003        -0.43441915512084961
  0.12530000000000002        -0.46973046660423279
  0.12640000000000001        -0.50587463378906250
  0.12750000000000003        -0.54256010055541992
  0.12860000000000002        -0.57944488525390625
  0.12970000000000001        -0.61613529920578003
  0.13080000000000003        -0.65218669176101685
  0.13190000000000002        -0.68710565567016602
  0.13300000000000001        -0.72035479545593262
  0.13410000000000000        -0.75135421752929688
  0.13520000000000004        -0.77948516607284546
  0.13630000000000003        -0.80409485101699829
  0.13740000000000002        -0.82449913024902344
  0.13850000000000001        -0.83999300003051758
  0.13960000000000000        -0.84986311197280884
  0.14070000000000005        -0.85340100526809692
  0.14180000000000004        -0.84991186857223511
  0.14290000000000003        -0.83872711658477783
  0.14400000000000002        -0.81921637058258057
  0.14510000000000001        -0.79079496860504150
  0.14620000000000000        -0.75294232368469238
  0.14730000000000004        -0.70522028207778931
  0.14840000000000003        -0.64728748798370361
  0.14950000000000002        -0.57891523838043213
  0.15060000000000001        -0.50000417232513428
  0.15170000000000000        -0.41059306263923645
  0.15280000000000005        -0.31086248159408569
  0.15390000000000004        -0.20114320516586304
  0.15500000000000003         -8.1922464072704315E-002
  0.15610000000000002          4.6153631061315536E-002
  0.15720000000000001         0.18227450549602509
  0.15830000000000000         0.32546091079711914
  0.15940000000000004         0.47456830739974976
  0.16050000000000003         0.62830024957656860
  0.16160000000000002         0.78522396087646484
  0.16270000000000001         0.94378620386123657
  0.16380000000000000          1.1023313999176025
  0.16490000000000005          1.2591201066970825
  0.16600000000000004          1.4123545885086060
  0.16710000000000003          1.5602025985717773
  0.16820000000000002          1.7008184194564819
  0.16930000000000001          1.8323732614517212
  0.17040000000000000          1.9530915021896362
  0.17150000000000004          2.0612831115722656
  0.17260000000000003          2.1553699970245361
  0.17370000000000002          2.2339122295379639
  0.17480000000000001          2.2956318855285645
  0.17590000000000000          2.3394360542297363
  0.17700000000000005          2.3644411563873291
  0.17810000000000004          2.3699958324432373
  0.17920000000000003          2.3557000160217285
  0.18030000000000002          2.3214135169982910
  0.18140000000000001          2.2672560214996338
  0.18250000000000000          2.1936063766479492
  0.18360000000000004          2.1011004447937012
  0.18470000000000003          1.9906252622604370
  0.18580000000000002          1.8633080720901489
  0.18690000000000001          1.7205036878585815
  0.18800000000000000          1.5637741088867188
  0.18910000000000005          1.3948564529418945
  0.19020000000000004          1.2156310081481934
  0.19130000000000003          1.0280976295471191
  0.19240000000000002         0.83434897661209106
  0.19350000000000001         0.63653737306594849
  0.19460000000000005         0.43684262037277222
  0.19570000000000004         0.23742952942848206
  0.19680000000000003          4.0401283651590347E-002
  0.19790000000000002        -0.15222030878067017
  0.19900000000000001        -0.33851006627082825
  0.20010000000000000        -0.51666337251663208
  0.20120000000000005        -0.68502330780029297
  0.20230000000000004        -0.84211879968643188
  0.20340000000000003        -0.98668849468231201
  0.20450000000000002         -1.1176754236221313
  0.20560000000000000         -1.2342245578765869
  0.20670000000000005         -1.3356958627700806
  0.20780000000000004         -1.4216744899749756
  0.20890000000000003         -1.4919774532318115
