 -0.12000000000000000          0.0000000000000000
 -0.11889999999999999          0.0000000000000000
 -0.11780000000000000          0.0000000000000000
 -0.11670000000000000          0.0000000000000000
 -0.11559999999999999          0.0000000000000000
 -0.11449999999999999         -3.0310014709323187E-019
 -0.11340000000000000          7.3047409995884066E-019
 -0.11230000000000000         -2.7254611875609648E-017
 -0.11119999999999999         -1.9118285361270247E-016
 -0.11009999999999999         -2.6949621119338487E-016
 -0.10900000000000000          9.7800340502024680E-016
 -0.10790000000000000          3.3849098874440828E-015
 -0.10679999999999999         -1.8085231273304693E-015
 -0.10569999999999999         -2.7143518078272429E-014
 -0.10460000000000000         -4.5625954864280185E-014
 -0.10349999999999999          4.9400401439881128E-014
 -0.10239999999999999          3.2051347253342355E-013
 -0.10130000000000000          4.3967279361560585E-013
 -0.10020000000000000         -3.9961008677438792E-013
  -9.9099999999999994E-002    -2.4364939319593271E-012
  -9.7999999999999990E-002    -3.4048345740056440E-012
  -9.6899999999999986E-002     1.3594669010311144E-012
  -9.5799999999999996E-002     1.3132766575607580E-011
  -9.4699999999999993E-002     2.0885957893734819E-011
  -9.3599999999999989E-002     2.4019432276478625E-012
  -9.2499999999999999E-002    -5.1304988035738575E-011
  -9.1399999999999995E-002    -1.0002866590586024E-010
  -9.0299999999999991E-002    -5.5079624888820788E-011
  -8.9200000000000002E-002     1.3780883378888831E-010
  -8.8099999999999984E-002     3.7009004194565875E-010
  -8.6999999999999994E-002     3.4676467253191845E-010
  -8.5899999999999990E-002    -1.8487066044681200E-010
  -8.4799999999999986E-002    -1.0342446898903290E-009
  -8.3699999999999997E-002    -1.3975524071341283E-009
  -8.2599999999999993E-002    -3.5930003416950740E-010
  -8.1499999999999989E-002     2.0312385107246200E-009
  -8.0399999999999999E-002     4.0372820642176066E-009
  -7.9299999999999995E-002     3.0396567485269088E-009
  -7.8199999999999992E-002    -2.0253396737501816E-009
  -7.7100000000000002E-002    -8.4016846813028678E-009
  -7.5999999999999984E-002    -1.0160722929697386E-008
  -7.4899999999999994E-002    -2.7487583320606745E-009
  -7.3799999999999991E-002     1.1440540070850602E-008
  -7.2699999999999987E-002     2.1976591213501706E-008
  -7.1599999999999997E-002     1.7103115368399813E-008
  -7.0499999999999993E-002    -5.2393360761016083E-009
  -6.9399999999999989E-002    -3.1548630374800268E-008
  -6.8300000000000000E-002    -3.9902356974153008E-008
  -6.7199999999999996E-002    -1.7589242062854282E-008
  -6.6099999999999992E-002     2.4597902381628955E-008
  -6.5000000000000002E-002     5.6096030931485075E-008
  -6.3899999999999985E-002     4.9414484948329118E-008
  -6.2799999999999995E-002     4.9129922352619815E-009
  -6.1699999999999991E-002    -4.5342179788576686E-008
  -6.0599999999999994E-002    -6.1970432341240667E-008
  -5.9499999999999990E-002    -3.2435195862490218E-008
  -5.8399999999999994E-002     1.5932011265817891E-008
  -5.7299999999999990E-002     3.9137507457098764E-008
  -5.6199999999999986E-002     1.7899063564641438E-008
  -5.5099999999999996E-002    -2.1182849252454616E-008
  -5.3999999999999992E-002    -2.8289109721413297E-008
  -5.2899999999999989E-002     1.9729187172856655E-008
  -5.1799999999999985E-002     8.8221682403855084E-008
  -5.0699999999999995E-002     1.0643148584676965E-007
  -4.9599999999999991E-002     2.9444141347312325E-008
  -4.8499999999999988E-002    -1.1225368723444262E-007
  -4.7399999999999998E-002    -2.2294396728739230E-007
  -4.6299999999999994E-002    -2.0966285774193238E-007
  -4.5199999999999990E-002    -5.5658404107816750E-008
  -4.4099999999999986E-002     1.5953392562551016E-007
  -4.2999999999999997E-002     3.0950863560974540E-007
  -4.1899999999999993E-002     3.0246647497733647E-007
  -4.0799999999999989E-002     1.3762833361852245E-007
  -3.9699999999999985E-002    -9.6227651624758437E-008
  -3.8599999999999995E-002    -2.7250837320025312E-007
  -3.7499999999999992E-002    -2.9716184712924587E-007
  -3.6399999999999988E-002    -1.6440532135675312E-007
  -3.5299999999999984E-002     2.9338504958786871E-008
  -3.4199999999999994E-002     1.3260387277114205E-007
  -3.3099999999999991E-002     4.2222517038226215E-008
  -3.1999999999999987E-002    -1.9012327356904279E-007
  -3.0899999999999997E-002    -3.4008911597993574E-007
  -2.9799999999999993E-002    -1.4493865307940723E-007
  -2.8699999999999989E-002     4.6052460334067291E-007
  -2.7599999999999986E-002     1.1811816875706427E-006
  -2.6499999999999996E-002     1.4550939795299200E-006
  -2.5399999999999992E-002     8.2004430623783264E-007
  -2.4299999999999988E-002    -6.7136289771951851E-007
  -2.3199999999999985E-002    -2.3222662548505468E-006
  -2.2099999999999995E-002    -3.1247500373865478E-006
  -2.0999999999999991E-002    -2.3921102183521725E-006
  -1.9899999999999987E-002    -2.6717393097897002E-007
  -1.8799999999999983E-002     2.2677068045595661E-006
  -1.7699999999999994E-002     3.9152400859165937E-006
  -1.6599999999999990E-002     3.7919774058536859E-006
  -1.5499999999999986E-002     1.9150936623191228E-006
  -1.4399999999999996E-002    -8.0530548984825145E-007
  -1.3299999999999992E-002    -3.0079024782025954E-006
  -1.2199999999999989E-002    -3.5032435334869660E-006
  -1.1099999999999985E-002    -1.8259358967043227E-006
  -9.9999999999999950E-003     1.4547722457791679E-006
  -8.8999999999999913E-003     4.7889734560158104E-006
  -7.7999999999999875E-003     6.1387759160425048E-006
  -6.6999999999999837E-003     3.8158341340022162E-006
  -5.5999999999999939E-003    -2.7051780762121780E-006
  -4.4999999999999901E-003    -1.2516783499449957E-005
  -3.3999999999999864E-003    -2.3845595933380537E-005
  -2.2999999999999826E-003    -3.5188357287552208E-005
  -1.1999999999999927E-003    -4.6270979510154575E-005
  -9.9999999999988987E-005    -5.8147914387518540E-005
   1.0000000000000148E-003    -7.2404538514092565E-005
   2.1000000000000185E-003    -9.0149187599308789E-005
   3.2000000000000084E-003    -1.1164759780513123E-004
   4.3000000000000121E-003    -1.3688906619790941E-004
   5.4000000000000159E-003    -1.6657239757478237E-004
   6.5000000000000058E-003    -2.0267663057893515E-004
   7.6000000000000234E-003    -2.4819900863803923E-004
   8.7000000000000133E-003    -3.0637250165455043E-004
   9.8000000000000032E-003    -3.8003234658390284E-004
   1.0900000000000021E-002    -4.7152812476269901E-004
   1.2000000000000011E-002    -5.8305205311626196E-004
   1.3100000000000001E-002    -7.1705249138176441E-004
   1.4200000000000018E-002    -8.7663839804008603E-004
   1.5300000000000008E-002    -1.0661171982064843E-003
   1.6400000000000026E-002    -1.2916270643472672E-003
   1.7500000000000016E-002    -1.5613891882821918E-003
   1.8600000000000005E-002    -1.8850587075576186E-003
   1.9700000000000023E-002    -2.2723563015460968E-003
   2.0800000000000013E-002    -2.7320920489728451E-003
   2.1900000000000003E-002    -3.2728165388107300E-003
   2.3000000000000020E-002    -3.9051815401762724E-003
   2.4100000000000010E-002    -4.6444679610431194E-003
   2.5200000000000000E-002    -5.5111851543188095E-003
   2.6300000000000018E-002    -6.5289260819554329E-003
   2.7400000000000008E-002    -7.7208695001900196E-003
   2.8500000000000025E-002    -9.1076092794537544E-003
   2.9600000000000015E-002    -1.0708095505833626E-002
   3.0700000000000005E-002    -1.2543044984340668E-002
   3.1800000000000023E-002    -1.4638386666774750E-002
   3.2900000000000013E-002    -1.7026551067829132E-002
   3.4000000000000002E-002    -1.9745305180549622E-002
   3.5100000000000020E-002    -2.2835467010736465E-002
   3.6200000000000010E-002    -2.6338987052440643E-002
   3.7300000000000028E-002    -3.0297776684165001E-002
   3.8400000000000017E-002    -3.4752912819385529E-002
   3.9500000000000007E-002    -3.9743985980749130E-002
   4.0600000000000025E-002    -4.5309290289878845E-002
   4.1700000000000015E-002    -5.1487293094396591E-002
   4.2800000000000005E-002    -5.8318424969911575E-002
   4.3900000000000022E-002    -6.5845273435115814E-002
   4.5000000000000012E-002    -7.4109710752964020E-002
   4.6100000000000002E-002    -8.3147943019866943E-002
   4.7200000000000020E-002    -9.2986993491649628E-002
   4.8300000000000010E-002   -0.10364484041929245
   4.9400000000000027E-002   -0.11513303965330124
   5.0500000000000017E-002   -0.12745884060859680
   5.1600000000000007E-002   -0.14062316715717316
   5.2700000000000025E-002   -0.15461461246013641
   5.3800000000000014E-002   -0.16940380632877350
   5.4900000000000004E-002   -0.18494181334972382
   5.6000000000000022E-002   -0.20116241276264191
   5.7100000000000012E-002   -0.21798498928546906
   5.8200000000000002E-002   -0.23531404137611389
   5.9300000000000019E-002   -0.25303429365158081
   6.0400000000000009E-002   -0.27100646495819092
   6.1500000000000027E-002   -0.28906634449958801
   6.2600000000000017E-002   -0.30702713131904602
   6.3700000000000007E-002   -0.32468262314796448
   6.4800000000000024E-002   -0.34180688858032227
   6.5900000000000014E-002   -0.35815262794494629
   6.7000000000000004E-002   -0.37345087528228760
   6.8100000000000022E-002   -0.38741448521614075
   6.9200000000000012E-002   -0.39974543452262878
   7.0300000000000029E-002   -0.41014027595520020
   7.1400000000000019E-002   -0.41829028725624084
   7.2500000000000009E-002   -0.42387941479682922
   7.3600000000000027E-002   -0.42658755183219910
   7.4700000000000016E-002   -0.42609935998916626
   7.5800000000000006E-002   -0.42211604118347168
   7.6900000000000024E-002   -0.41436505317687988
   7.8000000000000014E-002   -0.40260115265846252
   7.9100000000000004E-002   -0.38660517334938049
   8.0200000000000021E-002   -0.36618933081626892
   8.1300000000000011E-002   -0.34120857715606689
   8.2400000000000029E-002   -0.31157320737838745
   8.3500000000000019E-002   -0.27725434303283691
   8.4600000000000009E-002   -0.23828156292438507
   8.5700000000000026E-002   -0.19474202394485474
   8.6800000000000016E-002   -0.14678497612476349
   8.7900000000000006E-002    -9.4628348946571350E-002
   8.9000000000000024E-002    -3.8564819842576981E-002
   9.0100000000000013E-002     2.1037720143795013E-002
   9.1200000000000003E-002     8.3741314709186554E-002
   9.2300000000000021E-002    0.14904737472534180
   9.3400000000000011E-002    0.21640335023403168
   9.4500000000000028E-002    0.28520137071609497
   9.5600000000000018E-002    0.35477799177169800
   9.6700000000000008E-002    0.42442169785499573
   9.7800000000000026E-002    0.49339088797569275
   9.8900000000000016E-002    0.56093096733093262
  0.10000000000000001         0.62628304958343506
  0.10110000000000002         0.68868833780288696
  0.10220000000000001         0.74739319086074829
  0.10330000000000003         0.80166488885879517
  0.10440000000000002         0.85081404447555542
  0.10550000000000001         0.89421272277832031
  0.10660000000000003         0.93130248785018921
  0.10770000000000002         0.96159476041793823
  0.10880000000000001         0.98467361927032471
  0.10990000000000003          1.0002087354660034
  0.11100000000000002          1.0079742670059204
  0.11210000000000001          1.0078625679016113
  0.11320000000000002         0.99988377094268799
  0.11430000000000001         0.98415488004684448
  0.11540000000000003         0.96089249849319458
  0.11650000000000002         0.93041646480560303
  0.11760000000000001         0.89315766096115112
  0.11870000000000003         0.84965831041336060
  0.11980000000000002         0.80055779218673706
  0.12090000000000001         0.74657100439071655
  0.12200000000000003         0.68847388029098511
  0.12310000000000001         0.62709873914718628
  0.12420000000000003         0.56333363056182861
  0.12530000000000002         0.49811330437660217
  0.12640000000000001         0.43239596486091614
  0.12750000000000003         0.36713612079620361
  0.12860000000000002         0.30326426029205322
  0.12970000000000001         0.24168084561824799
  0.13080000000000003         0.18325640261173248
  0.13190000000000002         0.12882177531719208
  0.13300000000000001          7.9145438969135284E-002
  0.13410000000000000          3.4907583147287369E-002
  0.13520000000000004         -3.3120566513389349E-003
  0.13630000000000003         -3.5029519349336624E-002
  0.13740000000000002         -5.9850875288248062E-002
  0.13850000000000001         -7.7478088438510895E-002
  0.13960000000000000         -8.7729781866073608E-002
  0.14070000000000005         -9.0560488402843475E-002
  0.14180000000000004         -8.6057513952255249E-002
  0.14290000000000003         -7.4421182274818420E-002
  0.14400000000000002         -5.5949252098798752E-002
  0.14510000000000001         -3.1040517613291740E-002
  0.14620000000000000         -2.1113996626809239E-004
  0.14730000000000004          3.5899084061384201E-002
  0.14840000000000003          7.6542600989341736E-002
  0.14950000000000002         0.12089225649833679
  0.15060000000000001         0.16806371510028839
  0.15170000000000000         0.21711790561676025
  0.15280000000000005         0.26704770326614380
  0.15390000000000004         0.31677609682083130
  0.15500000000000003         0.36518463492393494
  0.15610000000000002         0.41115316748619080
  0.15720000000000001         0.45358568429946899
  0.15830000000000000         0.49140703678131104
  0.15940000000000004         0.52355170249938965
  0.16050000000000003         0.54896873235702515
  0.16160000000000002         0.56665366888046265
  0.16270000000000001         0.57569807767868042
  0.16380000000000000         0.57531476020812988
  0.16490000000000005         0.56482803821563721
  0.16600000000000004         0.54365622997283936
  0.16710000000000003         0.51131802797317505
  0.16820000000000002         0.46747046709060669
  0.16930000000000001         0.41194948554039001
  0.17040000000000000         0.34478136897087097
  0.17150000000000004         0.26616516709327698
  0.17260000000000003         0.17644906044006348
  0.17370000000000002          7.6131105422973633E-002
  0.17480000000000001         -3.4117072820663452E-002
  0.17590000000000000        -0.15342253446578979
  0.17700000000000005        -0.28071737289428711
  0.17810000000000004        -0.41477704048156738
  0.17920000000000003        -0.55425840616226196
  0.18030000000000002        -0.69771379232406616
  0.18140000000000001        -0.84357929229736328
  0.18250000000000000        -0.99016821384429932
  0.18360000000000004         -1.1356933116912842
  0.18470000000000003         -1.2783235311508179
  0.18580000000000002         -1.4162399768829346
  0.18690000000000001         -1.5476589202880859
  0.18800000000000000         -1.6708264350891113
  0.18910000000000005         -1.7840187549591064
  0.19020000000000004         -1.8855782747268677
  0.19130000000000003         -1.9739754199981689
  0.19240000000000002         -2.0478587150573730
  0.19350000000000001         -2.1060707569122314
  0.19460000000000005         -2.1476373672485352
  0.19570000000000004         -2.1717603206634521
  0.19680000000000003         -2.1778423786163330
  0.19790000000000002         -2.1655337810516357
  0.19900000000000001         -2.1347634792327881
  0.20010000000000000         -2.0857286453247070
  0.20120000000000005         -2.0188598632812500
  0.20230000000000004         -1.9347965717315674
  0.20340000000000003         -1.8343896865844727
  0.20450000000000002         -1.7187210321426392
  0.20560000000000000         -1.5891026258468628
  0.20670000000000005         -1.4470384120941162
  0.20780000000000004         -1.2941715717315674
  0.20890000000000003         -1.1322442293167114
