 -0.12000000000000000          0.0000000000000000
 -0.11889999999999999          0.0000000000000000
 -0.11780000000000000          0.0000000000000000
 -0.11670000000000000          0.0000000000000000
 -0.11559999999999999          0.0000000000000000
 -0.11449999999999999          0.0000000000000000
 -0.11340000000000000          0.0000000000000000
 -0.11230000000000000          0.0000000000000000
 -0.11119999999999999          0.0000000000000000
 -0.11009999999999999          0.0000000000000000
 -0.10900000000000000          0.0000000000000000
 -0.10790000000000000          0.0000000000000000
 -0.10679999999999999          1.8956219347676948E-034
 -0.10569999999999999          7.4771753838516028E-034
 -0.10460000000000000         -1.9946155486737206E-032
 -0.10349999999999999          4.4863068833498925E-033
 -0.10239999999999999          1.4434109073718718E-031
 -0.10130000000000000          2.3870093750368224E-031
 -0.10020000000000000         -4.0833800839372858E-031
  -9.9099999999999994E-002     4.5522939023164587E-030
  -9.7999999999999990E-002    -1.2270718079759160E-029
  -9.6899999999999986E-002    -7.6111896770770739E-029
  -9.5799999999999996E-002    -8.9915391775527555E-029
  -9.4699999999999993E-002     1.5854757247687481E-028
  -9.3599999999999989E-002     2.6897554455199149E-028
  -9.2499999999999999E-002     6.0025949688852799E-028
  -9.1399999999999995E-002     2.8088191791321046E-027
  -9.0299999999999991E-002     2.8088189865391102E-027
  -8.9200000000000002E-002     4.5756667323339715E-027
  -8.8099999999999984E-002     1.0419712407442489E-027
  -8.6999999999999994E-002    -6.2564546067126802E-026
  -8.5899999999999990E-002    -6.2564546067126802E-026
  -8.4799999999999986E-002     5.0513709663744321E-026
  -8.3699999999999997E-002     3.3320934899092213E-025
  -8.2599999999999993E-002     3.3320932433901884E-025
  -8.1499999999999989E-002    -1.1910369858446565E-025
  -8.0399999999999999E-002     1.0705281287727659E-025
  -7.9299999999999995E-002    -3.4526021004620790E-025
  -7.8199999999999992E-002    -1.2498862065893703E-024
  -7.7100000000000002E-002    -3.0591382982833083E-024
  -7.5999999999999984E-002    -4.8683903899772462E-024
  -7.4899999999999994E-002    -4.8683903899772462E-024
  -7.3799999999999991E-002     9.6056263435742575E-024
  -7.2699999999999987E-002     3.1316651443901513E-023
  -7.1599999999999997E-002    -4.8683907844076988E-024
  -7.0499999999999993E-002    -1.0618650910255958E-022
  -6.9399999999999989E-002    -1.3513454888054983E-022
  -6.8300000000000000E-002     3.8553645611180971E-023
  -6.7199999999999996E-002     8.2015053660118769E-022
  -6.6099999999999992E-002     5.3067018930838313E-022
  -6.5000000000000002E-002    -1.1483157139182679E-021
  -6.3899999999999985E-002    -2.1325489653957405E-021
  -6.2799999999999995E-002    -4.8290584163316508E-023
  -6.1699999999999991E-002     4.5833948494592552E-021
  -6.0599999999999994E-002     4.8149787637863937E-021
  -5.9499999999999990E-002    -4.8290846065137041E-023
  -5.8399999999999994E-002    -9.3116618205953636E-021
  -5.7299999999999990E-002    -1.7648696468862988E-020
  -5.6199999999999986E-002    -1.9009662627589524E-021
  -5.5099999999999996E-002     3.2141921851860653E-020
  -5.3999999999999992E-002     6.8963818352044664E-020
  -5.2899999999999989E-002     5.9700448854262052E-020
  -5.1799999999999985E-002    -3.2933262279435407E-020
  -5.0699999999999995E-002    -1.6262046432896038E-019
  -4.9599999999999991E-002    -2.2190606271898149E-019
  -4.8499999999999988E-002    -6.6281433184248584E-020
  -4.7399999999999998E-002     2.1532503961490374E-019
  -4.6299999999999994E-002     3.6353897742881967E-019
  -4.5199999999999990E-002     2.5978922871389676E-019
  -4.4099999999999986E-002    -1.8485255887845690E-019
  -4.2999999999999997E-002    -6.8877990608674044E-019
  -4.1899999999999993E-002    -7.7770823258593820E-019
  -4.0799999999999989E-002     7.8256383124923849E-021
  -3.9699999999999985E-002     1.6530003062032525E-018
  -3.8599999999999995E-002     2.4829982959226358E-018
  -3.7499999999999992E-002     1.6530003062032525E-018
  -3.6399999999999988E-002    -1.1630642279178147E-018
  -3.5299999999999984E-002    -5.8762670833389446E-018
  -3.4199999999999994E-002    -8.4848324302228956E-018
  -3.3099999999999991E-002    -1.6077058604138035E-018
  -3.1999999999999987E-002     1.2457796628746726E-017
  -3.0899999999999997E-002     2.0594742535928807E-017
  -2.9799999999999993E-002     1.2057619883283372E-017
  -2.8699999999999989E-002    -1.3553748074652934E-017
  -2.7599999999999986E-002    -4.1062254767479608E-017
  -2.6499999999999996E-002    -3.9165116032589240E-017
  -2.5399999999999992E-002     9.2119101265865935E-018
  -2.4299999999999988E-002     7.6560323634666116E-017
  -2.3199999999999985E-002     1.0122312387951846E-016
  -2.2099999999999995E-002     4.2411833024084375E-017
  -2.0999999999999991E-002    -8.4696439052513194E-017
  -1.9899999999999987E-002    -2.0801043365933003E-016
  -1.8799999999999983E-002    -1.9852472344126593E-016
  -1.7699999999999994E-002    -3.1194703503000315E-018
  -1.6599999999999990E-002     2.6200560767323947E-016
  -1.5499999999999986E-002     3.8484531676915310E-016
  -1.4399999999999996E-002     2.0651430877668291E-016
  -1.3299999999999992E-002    -1.8050191373161355E-016
  -1.2199999999999989E-002    -5.2578109068976680E-016
  -1.1099999999999985E-002    -5.6372387862246398E-016
  -9.9999999999999950E-003    -1.3497065026869370E-016
  -8.8999999999999913E-003     6.5423887815724258E-016
  -7.7999999999999875E-003     1.2233803795103451E-015
  -6.6999999999999837E-003     8.9327829919642497E-016
  -5.5999999999999939E-003    -5.2198691248165957E-016
  -4.4999999999999901E-003    -2.3128855076412535E-015
  -3.3999999999999864E-003    -2.8896156301083664E-015
  -2.2999999999999826E-003    -1.0000657545600243E-015
  -1.1999999999999927E-003     3.0446332473677441E-015
  -9.9999999999988987E-005     6.8996182566924674E-015
   1.0000000000000148E-003     6.4139507405605329E-015
   2.1000000000000185E-003    -9.3176864098996285E-016
   3.2000000000000084E-003    -1.1692336924779955E-014
   4.3000000000000121E-003    -1.7171272135305463E-014
   5.4000000000000159E-003    -8.9756346005240815E-015
   6.5000000000000058E-003     1.2575857510303129E-014
   7.6000000000000234E-003     3.3338139378020354E-014
   8.7000000000000133E-003     3.1274052222701396E-014
   9.8000000000000032E-003    -3.0869173438529155E-015
   1.0900000000000021E-002    -5.0803741909969530E-014
   1.2000000000000011E-002    -6.9987601597400889E-014
   1.3100000000000001E-002    -2.5670449855966053E-014
   1.4200000000000018E-002     6.6667063037574581E-014
   1.5300000000000008E-002     1.3083586677172659E-013
   1.6400000000000026E-002     8.2754793686093397E-014
   1.7500000000000016E-002    -7.7515454450192978E-014
   1.8600000000000005E-002    -2.2904369915456579E-013
   1.9700000000000023E-002    -2.0378898492757341E-013
   2.0800000000000013E-002     5.7257245277518576E-014
   2.1900000000000003E-002     3.8556842180820228E-013
   2.3000000000000020E-002     4.5720436984975077E-013
   2.4100000000000010E-002     6.8913258888421425E-014
   2.5200000000000000E-002    -5.8382373371509977E-013
   2.6300000000000018E-002    -9.3933227082038107E-013
   2.7400000000000008E-002    -4.7746257902242517E-013
   2.8500000000000025E-002     6.9776151002953757E-013
   2.9600000000000015E-002     1.6777472423498696E-012
   3.0700000000000005E-002     1.3683770913250348E-012
   3.1800000000000023E-002    -4.6356039666572979E-013
   3.2900000000000013E-002    -2.5839842418551306E-012
   3.4000000000000002E-002    -2.9443494083819521E-012
   3.5100000000000020E-002    -4.6744568936094022E-013
   3.6200000000000010E-002     3.4353776334067332E-012
   3.7300000000000028E-002     5.3547353183469593E-012
   3.8400000000000017E-002     2.5946877025423420E-012
   3.9500000000000007E-002    -3.8039801343592305E-012
   4.0600000000000025E-002    -8.7247622321262597E-012
   4.1700000000000015E-002    -6.6674751657280762E-012
   4.2800000000000005E-002     2.7933256836060183E-012
   4.3900000000000022E-002     1.2767962902227037E-011
   4.5000000000000012E-002     1.3444982974175623E-011
   4.6100000000000002E-002     9.7304336896947285E-013
   4.7200000000000020E-002    -1.6553721934875476E-011
   4.8300000000000010E-002    -2.3345294447585374E-011
   4.9400000000000027E-002    -9.2473407403703689E-012
   5.0500000000000017E-002     1.8359936834744239E-011
   5.1600000000000007E-002     3.6477272591373122E-011
   5.2700000000000025E-002     2.4436605516875431E-011
   5.3800000000000014E-002    -1.5147230691958669E-011
   5.4900000000000004E-002    -5.1962763952806412E-011
   5.6000000000000022E-002    -4.9639327370787356E-011
   5.7100000000000012E-002     7.5935205389246474E-013
   5.8200000000000002E-002     6.4820829259737422E-011
   5.9300000000000019E-002     8.6222244621847466E-011
   6.0400000000000009E-002     3.4175207802578100E-011
   6.1500000000000027E-002    -6.2165668446301225E-011
   6.2600000000000017E-002    -1.2622713985166456E-010
   6.3700000000000007E-002    -9.3170672565978663E-011
   6.4800000000000024E-002     2.8634710921848772E-011
   6.5900000000000014E-002     1.5015957921526990E-010
   6.7000000000000004E-002     1.6357487586660113E-010
   6.8100000000000022E-002     3.4484467364981342E-011
   6.9200000000000012E-002    -1.4943583870330457E-010
   7.0300000000000029E-002    -2.3136599580642070E-010
   7.1400000000000019E-002    -1.1707486369250120E-010
   7.2500000000000009E-002     1.2726635023607713E-010
   7.3600000000000027E-002     3.0561897457204168E-010
   7.4700000000000016E-002     2.3844923258131701E-010
   7.5800000000000006E-002    -6.4886984674217274E-011
   7.6900000000000024E-002    -3.7761016535853287E-010
   7.8000000000000014E-002    -4.2134357114420595E-010
   7.9100000000000004E-002    -1.1045427766864790E-010
   8.0200000000000021E-002     3.3862876391843599E-010
   8.1300000000000011E-002     5.8579852080242745E-010
   8.2400000000000029E-002     4.2690370682940681E-010
   8.3500000000000019E-002    -7.9620192383611510E-011
   8.4600000000000009E-002    -6.0678306823547246E-010
   8.5700000000000026E-002    -7.4006578643093235E-010
   8.6800000000000016E-002    -3.1684355139560694E-010
   8.7900000000000006E-002     4.3312017861119045E-010
   8.9000000000000024E-002     9.6326691068071568E-010
   9.0100000000000013E-002     7.7130007936077050E-010
   9.1200000000000003E-002    -1.1990348991464117E-010
   9.2300000000000021E-002    -1.0548715234648398E-009
   9.3400000000000011E-002    -1.3552549082973542E-009
   9.4500000000000028E-002    -5.9534471796851562E-010
   9.5600000000000018E-002     1.0517905435492025E-009
   9.6700000000000008E-002     2.2970882973538664E-009
   9.7800000000000026E-002     1.4894350197636186E-009
   9.8900000000000016E-002    -7.4653105919253449E-010
  0.10000000000000001         -2.3459232334488433E-009
  0.10110000000000002         -1.8127925827116087E-009
  0.10220000000000001          1.3700773848768222E-009
  0.10330000000000003          4.3301464636158471E-009
  0.10440000000000002          3.3275426858381252E-009
  0.10550000000000001         -2.1469936939411127E-009
  0.10660000000000003         -7.5897013118719769E-009
  0.10770000000000002         -6.2847247406239148E-009
  0.10880000000000001          1.5133063691052939E-009
  0.10990000000000003          7.9745321457380669E-009
  0.11100000000000002          7.4652728443425076E-009
  0.11210000000000001          2.1180512899121595E-009
  0.11320000000000002         -2.7835684868193766E-009
  0.11430000000000001         -4.1840313436125598E-009
  0.11540000000000003         -1.3831058520707984E-009
  0.11650000000000002          3.8368010990552648E-009
  0.11760000000000001          1.2366893287207859E-008
  0.11870000000000003          8.8020799537957828E-009
  0.11980000000000002         -1.7552082454130868E-008
  0.12090000000000001         -3.8431707594099862E-008
  0.12200000000000003         -2.3663192294520741E-008
  0.12310000000000001          2.9809022805693530E-008
  0.12420000000000003          7.5642354602223350E-008
  0.12530000000000002          4.4832177081843838E-008
  0.12640000000000001         -3.5630772998729299E-008
  0.12750000000000003         -9.5214097939333442E-008
  0.12860000000000002         -1.0438076003538299E-007
  0.12970000000000001         -4.1232617320474674E-008
  0.13080000000000003          5.6035890594330340E-008
  0.13190000000000002          1.2427662454683741E-007
  0.13300000000000001          1.0899885438675483E-007
  0.13410000000000000         -1.4241865464725834E-008
  0.13520000000000004         -1.2322333020620135E-007
  0.13630000000000003         -6.3130755734164268E-008
  0.13740000000000002          1.2835069185257453E-007
  0.13850000000000001          2.6075807113556948E-007
  0.13960000000000000          1.4566548145467095E-007
  0.14070000000000005         -1.6701966387699940E-007
  0.14180000000000004         -3.8294555793072504E-007
  0.14290000000000003         -2.8313075972619117E-007
  0.14400000000000002          1.0390622406930561E-007
  0.14510000000000001          4.0335061157747987E-007
  0.14620000000000000          3.5853580016009801E-007
  0.14730000000000004         -2.4427107447877461E-008
  0.14840000000000003         -3.6257520719118475E-007
  0.14950000000000002         -3.5646408491629700E-007
  0.15060000000000001         -1.0183448040379517E-007
  0.15170000000000000          2.0983215165415459E-007
  0.15280000000000005          3.0149880103635951E-007
  0.15390000000000004          8.1498832571469393E-008
  0.15500000000000003         -1.3035300128194649E-007
  0.15610000000000002          1.7344190320067732E-011
  0.15720000000000001          3.3612840866226179E-007
  0.15830000000000000          4.8279503062076401E-007
  0.15940000000000004          8.5572864350069722E-008
  0.16050000000000003         -6.4470481220268994E-007
  0.16160000000000002         -8.7183440200533369E-007
  0.16270000000000001         -3.4424186878823093E-007
  0.16380000000000000          4.5173027274358901E-007
  0.16490000000000005          6.3353581936098635E-007
  0.16600000000000004         -3.1712374948256183E-007
  0.16710000000000003         -1.3780379504169105E-006
  0.16820000000000002         -1.0650982176230173E-006
  0.16930000000000001          6.1291081010494963E-007
  0.17040000000000000          2.0663364921347238E-006
  0.17150000000000004          2.1294845282682218E-006
  0.17260000000000003          8.6652164554834599E-007
  0.17370000000000002         -7.0199666879489087E-007
  0.17480000000000001         -1.0177373042097315E-006
  0.17590000000000000          1.9633664294360642E-007
  0.17700000000000005          1.1863365898534539E-006
  0.17810000000000004          6.1596631439897465E-007
  0.17920000000000003         -1.0177371905228938E-006
  0.18030000000000002         -2.2481071937363595E-006
  0.18140000000000001         -2.0688478343799943E-006
  0.18250000000000000         -7.7736649473081343E-007
  0.18360000000000004          5.8744814168676385E-007
  0.18470000000000003          1.0600406312732957E-006
  0.18580000000000002          6.6078138161174138E-007
  0.18690000000000001          2.6152218879360589E-007
  0.18800000000000000          4.3263327142994967E-007
  0.18910000000000005          7.9929986895876937E-007
  0.19020000000000004          5.9559619103310979E-007
  0.19130000000000003         -2.6810738518179278E-007
  0.19240000000000002         -1.3192183132559876E-006
  0.19350000000000001         -1.5962552879500436E-006
  0.19460000000000005         -7.2440354870195733E-007
  0.19570000000000004          6.1189257394289598E-007
  0.19680000000000003          1.2311517139096395E-006
  0.19790000000000002          5.5485548955402919E-007
  0.19900000000000001         -3.9440362797904527E-007
  0.20010000000000000         -5.6144062909879722E-007
  0.20120000000000005          2.2078148731452529E-007
  0.20230000000000004          1.3167071983843925E-006
  0.20340000000000003          1.5183737787083373E-006
  0.20450000000000002          5.0189242983833537E-007
  0.20560000000000000         -1.0747739906946663E-006
  0.20670000000000005         -2.3183849862107309E-006
  0.20780000000000004         -2.1197738533373922E-006
  0.20890000000000003         -4.5131335468795442E-007
