 -0.12000000000000000         -2.7323794364929199
 -0.11889999999999999         -1.2527126073837280
 -0.11780000000000000         0.75595223903656006
 -0.11670000000000000          1.3152822256088257
 -0.11559999999999999         -4.1803814470767975E-002
 -0.11449999999999999         -1.8876168727874756
 -0.11340000000000000         -2.4282515048980713
 -0.11230000000000000         -1.3440879583358765
 -0.11119999999999999         -6.5459251403808594E-002
 -0.11009999999999999        -0.25173977017402649
 -0.10900000000000000         -2.0840530395507812
 -0.10790000000000000         -4.1264400482177734
 -0.10679999999999999         -4.8493680953979492
 -0.10569999999999999         -4.1986885070800781
 -0.10460000000000000         -3.5981745719909668
 -0.10349999999999999         -4.4424033164978027
 -0.10239999999999999         -6.6954808235168457
 -0.10130000000000000         -9.0431985855102539
 -0.10020000000000000         -10.375605583190918
  -9.9099999999999994E-002    -10.990736007690430
  -9.7999999999999990E-002    -12.255072593688965
  -9.6899999999999986E-002    -15.126728057861328
  -9.5799999999999996E-002    -19.150426864624023
  -9.4699999999999993E-002    -22.999834060668945
  -9.3599999999999989E-002    -25.970285415649414
  -9.2499999999999999E-002    -28.803226470947266
  -9.1399999999999995E-002    -32.947135925292969
  -9.0299999999999991E-002    -39.043075561523438
  -8.9200000000000002E-002    -46.264377593994141
  -8.8099999999999984E-002    -53.236705780029297
  -8.6999999999999994E-002    -59.575103759765625
  -8.5899999999999990E-002    -66.392700195312500
  -8.4799999999999986E-002    -75.213500976562500
  -8.3699999999999997E-002    -86.412284851074219
  -8.2599999999999993E-002    -98.819953918457031
  -8.1499999999999989E-002    -110.94261932373047
  -8.0399999999999999E-002    -122.52875518798828
  -7.9299999999999995E-002    -134.85005187988281
  -7.8199999999999992E-002    -149.38664245605469
  -7.7100000000000002E-002    -166.27186584472656
  -7.5999999999999984E-002    -184.10214233398438
  -7.4899999999999994E-002    -201.30960083007812
  -7.3799999999999991E-002    -217.66397094726562
  -7.2699999999999987E-002    -234.37519836425781
  -7.1599999999999997E-002    -252.67860412597656
  -7.0499999999999993E-002    -272.38088989257812
  -6.9399999999999989E-002    -291.85229492187500
  -6.8300000000000000E-002    -309.43118286132812
  -6.7199999999999996E-002    -324.78289794921875
  -6.6099999999999992E-002    -338.81903076171875
  -6.5000000000000002E-002    -352.31805419921875
  -6.3899999999999985E-002    -364.68426513671875
  -6.2799999999999995E-002    -374.13116455078125
  -6.1699999999999991E-002    -379.05441284179688
  -6.0599999999999994E-002    -379.12551879882812
  -5.9499999999999990E-002    -375.00677490234375
  -5.8399999999999994E-002    -367.01245117187500
  -5.7299999999999990E-002    -354.19824218750000
  -5.6199999999999986E-002    -334.82141113281250
  -5.5099999999999996E-002    -307.64749145507812
  -5.3999999999999992E-002    -272.67221069335938
  -5.2899999999999989E-002    -230.61614990234375
  -5.1799999999999985E-002    -181.66705322265625
  -5.0699999999999995E-002    -124.90617370605469
  -4.9599999999999991E-002    -59.082897186279297
  -4.8499999999999988E-002     16.227554321289062
  -4.7399999999999998E-002     100.10831451416016
  -4.6299999999999994E-002     191.20542907714844
  -4.5199999999999990E-002     288.83053588867188
  -4.4099999999999986E-002     393.22354125976562
  -4.2999999999999997E-002     504.68969726562500
  -4.1899999999999993E-002     622.33215332031250
  -4.0799999999999989E-002     743.99847412109375
  -3.9699999999999985E-002     867.32220458984375
  -3.8599999999999995E-002     990.77105712890625
  -3.7499999999999992E-002     1113.7098388671875
  -3.6399999999999988E-002     1235.3269042968750
  -3.5299999999999984E-002     1353.5646972656250
  -3.4199999999999994E-002     1465.3721923828125
  -3.3099999999999991E-002     1567.5911865234375
  -3.1999999999999987E-002     1658.3146972656250
  -3.0899999999999997E-002     1736.4449462890625
  -2.9799999999999993E-002     1800.8962402343750
  -2.8699999999999989E-002     1849.4935302734375
  -2.7599999999999986E-002     1879.3043212890625
  -2.6499999999999996E-002     1887.8774414062500
  -2.5399999999999992E-002     1874.0487060546875
  -2.4299999999999988E-002     1837.8043212890625
  -2.3199999999999985E-002     1779.1306152343750
  -2.2099999999999995E-002     1697.2276611328125
  -2.0999999999999991E-002     1590.9039306640625
  -1.9899999999999987E-002     1459.7553710937500
  -1.8799999999999983E-002     1304.8574218750000
  -1.7699999999999994E-002     1128.3426513671875
  -1.6599999999999990E-002     932.34808349609375
  -1.5499999999999986E-002     718.35205078125000
  -1.4399999999999996E-002     487.66665649414062
  -1.3299999999999992E-002     242.41870117187500
  -1.2199999999999989E-002    -13.928294181823730
  -1.1099999999999985E-002    -277.22711181640625
  -9.9999999999999950E-003    -543.60357666015625
  -8.8999999999999913E-003    -809.96875000000000
  -7.7999999999999875E-003    -1073.5026855468750
  -6.6999999999999837E-003    -1330.7561035156250
  -5.5999999999999939E-003    -1577.5742187500000
  -4.4999999999999901E-003    -1809.4987792968750
  -3.3999999999999864E-003    -2022.9155273437500
  -2.2999999999999826E-003    -2215.2834472656250
  -1.1999999999999927E-003    -2384.4519042968750
  -9.9999999999988987E-005    -2528.1608886718750
   1.0000000000000148E-003    -2643.6794433593750
   2.1000000000000185E-003    -2728.7473144531250
   3.2000000000000084E-003    -2782.1354980468750
   4.3000000000000121E-003    -2803.7419433593750
   5.4000000000000159E-003    -2794.0556640625000
   6.5000000000000058E-003    -2753.4824218750000
   7.6000000000000234E-003    -2682.3867187500000
   8.7000000000000133E-003    -2581.4428710937500
   9.8000000000000032E-003    -2452.5708007812500
   1.0900000000000021E-002    -2298.4794921875000
   1.2000000000000011E-002    -2122.3459472656250
   1.3100000000000001E-002    -1926.9230957031250
   1.4200000000000018E-002    -1714.8356933593750
   1.5300000000000008E-002    -1488.8750000000000
   1.6400000000000026E-002    -1252.5584716796875
   1.7500000000000016E-002    -1010.0203857421875
   1.8600000000000005E-002    -765.06823730468750
   1.9700000000000023E-002    -521.02630615234375
   2.0800000000000013E-002    -280.57879638671875
   2.1900000000000003E-002    -46.411491394042969
   2.3000000000000020E-002     178.46337890625000
   2.4100000000000010E-002     390.92355346679688
   2.5200000000000000E-002     588.38323974609375
   2.6300000000000018E-002     769.06988525390625
   2.7400000000000008E-002     931.94134521484375
   2.8500000000000025E-002     1076.1234130859375
   2.9600000000000015E-002     1200.5592041015625
   3.0700000000000005E-002     1304.2714843750000
   3.1800000000000023E-002     1386.8674316406250
   3.2900000000000013E-002     1448.7739257812500
   3.4000000000000002E-002     1490.9627685546875
   3.5100000000000020E-002     1514.4692382812500
   3.6200000000000010E-002     1520.0747070312500
   3.7300000000000028E-002     1508.5642089843750
   3.8400000000000017E-002     1481.1531982421875
   3.9500000000000007E-002     1439.6433105468750
   4.0600000000000025E-002     1386.0368652343750
   4.1700000000000015E-002     1322.1639404296875
   4.2800000000000005E-002     1249.4921875000000
   4.3900000000000022E-002     1169.4116210937500
   4.5000000000000012E-002     1083.4525146484375
   4.6100000000000002E-002     993.49603271484375
   4.7200000000000020E-002     901.35125732421875
   4.8300000000000010E-002     808.52563476562500
   4.9400000000000027E-002     716.07458496093750
   5.0500000000000017E-002     624.89593505859375
   5.1600000000000007E-002     535.97290039062500
   5.2700000000000025E-002     450.45373535156250
   5.3800000000000014E-002     369.31408691406250
   5.4900000000000004E-002     293.12658691406250
   5.6000000000000022E-002     222.13591003417969
   5.7100000000000012E-002     156.43493652343750
   5.8200000000000002E-002     96.318565368652344
   5.9300000000000019E-002     42.102512359619141
   6.0400000000000009E-002    -6.0084137916564941
   6.1500000000000027E-002    -48.168289184570312
   6.2600000000000017E-002    -84.747840881347656
   6.3700000000000007E-002    -116.12205505371094
   6.4800000000000024E-002    -142.49906921386719
   6.5900000000000014E-002    -163.97816467285156
   6.7000000000000004E-002    -180.78480529785156
   6.8100000000000022E-002    -193.35890197753906
   6.9200000000000012E-002    -202.26770019531250
   7.0300000000000029E-002    -208.02368164062500
   7.1400000000000019E-002    -210.95440673828125
   7.2500000000000009E-002    -211.26492309570312
   7.3600000000000027E-002    -209.21194458007812
   7.4700000000000016E-002    -205.16714477539062
   7.5800000000000006E-002    -199.58326721191406
   7.6900000000000024E-002    -192.84999084472656
   7.8000000000000014E-002    -185.21430969238281
   7.9100000000000004E-002    -176.82208251953125
   8.0200000000000021E-002    -167.81135559082031
   8.1300000000000011E-002    -158.39926147460938
   8.2400000000000029E-002    -148.82943725585938
   8.3500000000000019E-002    -139.31185913085938
   8.4600000000000009E-002    -129.97909545898438
   8.5700000000000026E-002    -120.88934326171875
   8.6800000000000016E-002    -112.08019256591797
   8.7900000000000006E-002    -103.59493255615234
   8.9000000000000024E-002    -95.487228393554688
   9.0100000000000013E-002    -87.808273315429688
   9.1200000000000003E-002    -80.610877990722656
   9.2300000000000021E-002    -73.915321350097656
   9.3400000000000011E-002    -67.701637268066406
   9.4500000000000028E-002    -61.930969238281250
   9.5600000000000018E-002    -56.568332672119141
   9.6700000000000008E-002    -51.610427856445312
   9.7800000000000026E-002    -47.082580566406250
   9.8900000000000016E-002    -42.989131927490234
  0.10000000000000001         -39.289039611816406
  0.10110000000000002         -35.906780242919922
  0.10220000000000001         -32.785812377929688
  0.10330000000000003         -29.923307418823242
  0.10440000000000002         -27.338958740234375
  0.10550000000000001         -25.027542114257812
  0.10660000000000003         -22.929708480834961
  0.10770000000000002         -20.975067138671875
  0.10880000000000001         -19.150909423828125
  0.10990000000000003         -17.510477066040039
  0.11100000000000002         -16.105083465576172
  0.11210000000000001         -14.902462959289551
  0.11320000000000002         -13.791909217834473
  0.11430000000000001         -12.683587074279785
  0.11540000000000003         -11.600587844848633
  0.11650000000000002         -10.659287452697754
  0.11760000000000001         -9.9404726028442383
  0.11870000000000003         -9.3834276199340820
  0.11980000000000002         -8.8199558258056641
  0.12090000000000001         -8.1349735260009766
  0.12200000000000003         -7.3902392387390137
  0.12310000000000001         -6.7722139358520508
  0.12420000000000003         -6.4018507003784180
  0.12530000000000002         -6.1966342926025391
  0.12640000000000001         -5.9290313720703125
  0.12750000000000003         -5.4518103599548340
  0.12860000000000002         -4.8462834358215332
  0.12970000000000001         -4.3487997055053711
  0.13080000000000003         -4.1104836463928223
  0.13190000000000002         -4.0340957641601562
  0.13300000000000001         -3.8619844913482666
  0.13410000000000000         -3.4342648983001709
  0.13520000000000004         -2.8570499420166016
  0.13630000000000003         -2.4025049209594727
  0.13740000000000002         -2.2379829883575439
  0.13850000000000001         -2.2579653263092041
  0.13960000000000000         -2.1935219764709473
  0.14070000000000005         -1.8901331424713135
  0.14180000000000004         -1.4669597148895264
  0.14290000000000003         -1.1920117139816284
  0.14400000000000002         -1.2043460607528687
  0.14510000000000001         -1.3688453435897827
  0.14620000000000000         -1.4193637371063232
  0.14730000000000004         -1.2383414506912231
  0.14840000000000003        -0.97945517301559448
  0.14950000000000002        -0.90635663270950317
  0.15060000000000001         -1.1130962371826172
  0.15170000000000000         -1.4218108654022217
  0.15280000000000005         -1.5672013759613037
  0.15390000000000004         -1.4732581377029419
  0.15500000000000003         -1.3279476165771484
  0.15610000000000002         -1.3785573244094849
  0.15720000000000001         -1.6625142097473145
  0.15830000000000000         -1.9584909677505493
  0.15940000000000004         -2.0153372287750244
  0.16050000000000003         -1.8178617954254150
  0.16160000000000002         -1.6062744855880737
  0.16270000000000001         -1.6253042221069336
  0.16380000000000000         -1.8646837472915649
  0.16490000000000005         -2.0653948783874512
  0.16600000000000004         -1.9905771017074585
  0.16710000000000003         -1.6768406629562378
  0.16820000000000002         -1.4014643430709839
  0.16930000000000001         -1.3943347930908203
  0.17040000000000000         -1.5967240333557129
  0.17150000000000004         -1.7198303937911987
  0.17260000000000003         -1.5469762086868286
  0.17370000000000002         -1.1620702743530273
  0.17480000000000001        -0.86819690465927124
  0.17590000000000000        -0.87514680624008179
  0.17700000000000005         -1.0839151144027710
  0.17810000000000004         -1.1913105249404907
  0.17920000000000003         -1.0065759420394897
  0.18030000000000002        -0.64943420886993408
  0.18140000000000001        -0.42407724261283875
  0.18250000000000000        -0.50004333257675171
  0.18360000000000004        -0.73369354009628296
  0.18470000000000003        -0.81606292724609375
  0.18580000000000002        -0.59209722280502319
  0.18690000000000001        -0.22004853188991547
  0.18800000000000000         -4.2038103565573692E-003
  0.18910000000000005         -7.9554803669452667E-002
  0.19020000000000004        -0.27505871653556824
  0.19130000000000003        -0.29732087254524231
  0.19240000000000002         -3.9133261889219284E-002
  0.19350000000000001         0.30886825919151306
  0.19460000000000005         0.45910826325416565
  0.19570000000000004         0.32656830549240112
  0.19680000000000003         0.11458703130483627
  0.19790000000000002         0.10007125139236450
  0.19900000000000001         0.34354031085968018
  0.20010000000000000         0.62852329015731812
  0.20120000000000005         0.68793869018554688
  0.20230000000000004         0.47982951998710632
  0.20340000000000003         0.22417478263378143
  0.20450000000000002         0.16667997837066650
  0.20560000000000000         0.31949397921562195
  0.20670000000000005         0.45220917463302612
  0.20780000000000004         0.33781981468200684
  0.20890000000000003         -5.7155517861247063E-003
