 -0.12000000000000000          0.0000000000000000
 -0.11889999999999999          0.0000000000000000
 -0.11780000000000000          0.0000000000000000
 -0.11670000000000000          0.0000000000000000
 -0.11559999999999999          0.0000000000000000
 -0.11449999999999999          0.0000000000000000
 -0.11340000000000000          0.0000000000000000
 -0.11230000000000000          0.0000000000000000
 -0.11119999999999999          0.0000000000000000
 -0.11009999999999999          2.9043137134389362E-035
 -0.10900000000000000          1.3681445657714420E-022
 -0.10790000000000000          6.1396026938196998E-022
 -0.10679999999999999         -2.3942575213203400E-021
 -0.10569999999999999         -2.1034836238929415E-020
 -0.10460000000000000         -2.1566055828791397E-020
 -0.10349999999999999          2.2026767641944621E-019
 -0.10239999999999999          8.2446234196324456E-019
 -0.10130000000000000         -3.0053630079706491E-020
 -0.10020000000000000         -7.2992973239759440E-018
  -9.9099999999999994E-002    -1.8444772738078034E-017
  -9.7999999999999990E-002     4.9228570549670933E-018
  -9.6899999999999986E-002     1.3023340675291613E-016
  -9.5799999999999996E-002     2.8734997165547039E-016
  -9.4699999999999993E-002    -2.1403336400328302E-017
  -9.3599999999999989E-002    -1.4985449616563596E-015
  -9.2499999999999999E-002    -3.3372541197643814E-015
  -9.1399999999999995E-002    -8.7091308243642207E-016
  -9.0299999999999991E-002     1.2080782846258329E-014
  -8.9200000000000002E-002     2.9863572958924731E-014
  -8.8099999999999984E-002     1.8414325172637335E-014
  -8.6999999999999994E-002    -6.9296958037266582E-014
  -8.5899999999999990E-002    -2.0931134158802790E-013
  -8.4799999999999986E-002    -2.0174567040815303E-013
  -8.3699999999999997E-002     2.6064979168078088E-013
  -8.2599999999999993E-002     1.1531936430079662E-012
  -8.1499999999999989E-002     1.5255126805871963E-012
  -8.0399999999999999E-002    -3.2595733295712542E-013
  -7.9299999999999995E-002    -4.9272331006928994E-012
  -7.8199999999999992E-002    -8.6687011735510654E-012
  -7.7100000000000002E-002    -3.5987705870848987E-012
  -7.5999999999999984E-002     1.5483152954187819E-011
  -7.4899999999999994E-002     3.8212252806417995E-011
  -7.3799999999999991E-002     3.3572349761300768E-011
  -7.2699999999999987E-002    -2.8813755201258476E-011
  -7.1599999999999997E-002    -1.3082844529942209E-010
  -7.0499999999999993E-002    -1.7261862772506758E-010
  -6.9399999999999989E-002    -2.1561630952862850E-011
  -6.8300000000000000E-002     3.3484601202892344E-010
  -6.7199999999999996E-002     6.3862021226758125E-010
  -6.6099999999999992E-002     4.2859230053855607E-010
  -6.5000000000000002E-002    -5.4630822088348636E-010
  -6.3899999999999985E-002    -1.7901795601458665E-009
  -6.2799999999999995E-002    -1.9986639010478788E-009
  -6.1699999999999991E-002     1.5524035182729443E-011
  -6.0599999999999994E-002     3.7397054342135230E-009
  -5.9499999999999990E-002     6.1736038503559398E-009
  -5.8399999999999994E-002     3.4634870527116253E-009
  -5.7299999999999990E-002    -5.1645012710825922E-009
  -5.6199999999999986E-002    -1.4221381405831032E-008
  -5.5099999999999996E-002    -1.3885764538199100E-008
  -5.3999999999999992E-002     1.6702701444181587E-009
  -5.2899999999999989E-002     2.5029303074574292E-008
  -5.1799999999999985E-002     3.5526976915884851E-008
  -5.0699999999999995E-002     1.4347502741424225E-008
  -4.9599999999999991E-002    -3.3375105346068529E-008
  -4.8499999999999988E-002    -7.0533644702657565E-008
  -4.7399999999999998E-002    -5.1406328083192700E-008
  -4.6299999999999994E-002     3.2274048322739263E-008
  -4.5199999999999990E-002     1.2197327237117122E-007
  -4.4099999999999986E-002     1.2192744236470358E-007
  -4.2999999999999997E-002    -1.3916367613845644E-008
  -4.1899999999999993E-002    -2.0452657167879086E-007
  -4.0799999999999989E-002    -2.6528098828745401E-007
  -3.9699999999999985E-002    -5.8376876665953801E-008
  -3.8599999999999995E-002     3.3104498697866903E-007
  -3.7499999999999992E-002     5.7300036360169790E-007
  -3.6399999999999988E-002     3.2487309908893903E-007
  -3.5299999999999984E-002    -4.0901593933999159E-007
  -3.4199999999999994E-002    -1.1127411880806325E-006
  -3.3099999999999991E-002    -1.0516168913453288E-006
  -3.1999999999999987E-002     7.8041757945040943E-008
  -3.0899999999999997E-002     1.6556377886445310E-006
  -2.9799999999999993E-002     2.3642019186807364E-006
  -2.8699999999999989E-002     1.1966251349801425E-006
  -2.7599999999999986E-002    -1.4627944437963336E-006
  -2.6499999999999996E-002    -3.7159218209125347E-006
  -2.5399999999999992E-002    -3.4356464766457222E-006
  -2.4299999999999988E-002    -1.7505260529976750E-007
  -2.3199999999999985E-002     3.9413985177817755E-006
  -2.2099999999999995E-002     5.5000473366815189E-006
  -2.0999999999999991E-002     2.6412099032309230E-006
  -1.9899999999999987E-002    -2.8355714221109684E-006
  -1.8799999999999983E-002    -6.3232414504454429E-006
  -1.7699999999999994E-002    -4.1663047340986368E-006
  -1.6599999999999990E-002     2.5604247184676331E-006
  -1.5499999999999986E-002     7.9248338806790417E-006
  -1.4399999999999996E-002     5.7508304962534057E-006
  -1.3299999999999992E-002    -4.2569836296028027E-006
  -1.2199999999999989E-002    -1.4421497326110999E-005
  -1.1099999999999985E-002    -1.4156120414553343E-005
  -9.9999999999999950E-003     7.0515994821250206E-007
  -8.8999999999999913E-003     2.1952877432341200E-005
  -7.7999999999999875E-003     3.2804506190585473E-005
  -6.6999999999999837E-003     2.0410023353176065E-005
  -5.5999999999999939E-003    -1.2067896022930048E-005
  -4.4999999999999901E-003    -4.4425687519834652E-005
  -3.3999999999999864E-003    -5.2425359172046204E-005
  -2.2999999999999826E-003    -2.6264837288176801E-005
  -1.1999999999999927E-003     1.9970817447761547E-005
  -9.9999999999988987E-005     5.6680899433561931E-005
   1.0000000000000148E-003     5.9912286815232858E-005
   2.1000000000000185E-003     2.9247157726781698E-005
   3.2000000000000084E-003    -1.2184379556862828E-005
   4.3000000000000121E-003    -3.6320805520523206E-005
   5.4000000000000159E-003    -3.2697575079512679E-005
   6.5000000000000058E-003    -1.6069388948380364E-005
   7.6000000000000234E-003    -1.1856915079985365E-005
   8.7000000000000133E-003    -3.0709212296637491E-005
   9.8000000000000032E-003    -5.3945499530521540E-005
   1.0900000000000021E-002    -4.4680891733143570E-005
   1.2000000000000011E-002     2.0629215214292346E-005
   1.3100000000000001E-002     1.2352570774965376E-004
   1.4200000000000018E-002     2.0259134180377760E-004
   1.5300000000000008E-002     1.8734794866757834E-004
   1.6400000000000026E-002     4.8681577027286233E-005
   1.7500000000000016E-002    -1.6798288561406050E-004
   1.8600000000000005E-002    -3.5395778832026823E-004
   1.9700000000000023E-002    -3.9368547732009248E-004
   2.0800000000000013E-002    -2.3607083130624453E-004
   2.1900000000000003E-002     6.4229941926940252E-005
   2.3000000000000020E-002     3.6688425461765052E-004
   2.4100000000000010E-002     5.2144518122077791E-004
   2.5200000000000000E-002     4.5402490650301390E-004
   2.6300000000000018E-002     2.0831720030396449E-004
   2.7400000000000008E-002    -8.8582681200981839E-005
   2.8500000000000025E-002    -3.1260587275031942E-004
   2.9600000000000015E-002    -4.1766979848036279E-004
   3.0700000000000005E-002    -4.4110906310378865E-004
   3.1800000000000023E-002    -4.3592252768573549E-004
   3.2900000000000013E-002    -3.9042285061437112E-004
   3.4000000000000002E-002    -2.1528385695995816E-004
   3.5100000000000020E-002     1.7255755665252325E-004
   3.6200000000000010E-002     7.2722538607199606E-004
   3.7300000000000028E-002     1.2226119870320060E-003
   3.8400000000000017E-002     1.3453291030600229E-003
   3.9500000000000007E-002     8.9443428441872473E-004
   4.0600000000000025E-002    -4.8748999688665068E-005
   4.1700000000000015E-002    -1.1179840657861097E-003
   4.2800000000000005E-002    -1.8513932591304604E-003
   4.3900000000000022E-002    -1.9524743547662631E-003
   4.5000000000000012E-002    -1.4417081838472435E-003
   4.6100000000000002E-002    -5.9629551833479506E-004
   4.7200000000000020E-002     2.6366143720238350E-004
   4.8300000000000010E-002     9.6974789630628762E-004
   4.9400000000000027E-002     1.5338846715167026E-003
   5.0500000000000017E-002     2.0097291562705386E-003
   5.1600000000000007E-002     2.3288920056073639E-003
   5.2700000000000025E-002     2.2747833281754198E-003
   5.3800000000000014E-002     1.6365307383238235E-003
   5.4900000000000004E-002     4.2379868682467387E-004
   5.6000000000000022E-002    -1.0446469532325964E-003
   5.7100000000000012E-002    -2.2812010720371563E-003
   5.8200000000000002E-002    -2.9273303225635025E-003
   5.9300000000000019E-002    -3.0085199978200569E-003
   6.0400000000000009E-002    -2.9600118286905838E-003
   6.1500000000000027E-002    -3.3862665295600358E-003
   6.2600000000000017E-002    -4.6995934098960877E-003
   6.3700000000000007E-002    -6.8728057667618086E-003
   6.4800000000000024E-002    -9.4775846228011742E-003
   6.5900000000000014E-002    -1.1997515335680138E-002
   6.7000000000000004E-002    -1.4218180440367540E-002
   6.8100000000000022E-002    -1.6425689682365872E-002
   6.9200000000000012E-002    -1.9257079809905653E-002
   7.0300000000000029E-002    -2.3286005482079351E-002
   7.1400000000000019E-002    -2.8644742444159637E-002
   7.2500000000000009E-002    -3.5007368773224377E-002
   7.3600000000000027E-002    -4.2022593319418947E-002
   7.4700000000000016E-002    -4.9930818378928855E-002
   7.5800000000000006E-002    -5.9880565851931154E-002
   7.6900000000000024E-002    -7.3599353432660747E-002
   7.8000000000000014E-002    -9.2531904578215668E-002
   7.9100000000000004E-002   -0.11701685935259698
   8.0200000000000021E-002   -0.14615473151207989
   8.1300000000000011E-002   -0.17859360575677199
   8.2400000000000029E-002   -0.21378242969514424
   8.3500000000000019E-002   -0.25285109877588147
   8.4600000000000009E-002   -0.29848706722261664
   8.5700000000000026E-002   -0.35387071967127515
   8.6800000000000016E-002   -0.42144414782527195
   8.7900000000000006E-002   -0.50236815214160790
   8.9000000000000024E-002   -0.59699922800068472
   9.0100000000000013E-002   -0.70599955320363472
   9.1200000000000003E-002   -0.83118027448660303
   9.2300000000000021E-002   -0.97548723220832412
   9.3400000000000011E-002    -1.1422058343888177
   9.4500000000000028E-002    -1.3340718746186295
   9.5600000000000018E-002    -1.5528614521027770
   9.6700000000000008E-002    -1.7999397516251958
   9.7800000000000026E-002    -2.0770807266236910
   9.8900000000000016E-002    -2.3871159553529631
  0.10000000000000001         -2.7339587211610961
  0.10110000000000002         -3.1217794418337337
  0.10220000000000001         -3.5541977882387976
  0.10330000000000003         -4.0337276458743334
  0.10440000000000002         -4.5617704391483018
  0.10550000000000001         -5.1393160820011312
  0.10660000000000003         -5.7675585746769631
  0.10770000000000002         -6.4481582641606607
  0.10880000000000001         -7.1827073097234653
  0.10990000000000003         -7.9714193344122508
  0.11100000000000002         -8.8121528625495280
  0.11210000000000001         -9.7007131576545831
  0.11320000000000002         -10.631211280823607
  0.11430000000000001         -11.597843170166952
  0.11540000000000003         -12.595381736756394
  0.11650000000000002         -13.617557525635879
  0.11760000000000001         -14.656066894532456
  0.11870000000000003         -15.698462486268390
  0.11980000000000002         -16.728712081910572
  0.12090000000000001         -17.727916717530785
  0.12200000000000003         -18.676876068116815
  0.12310000000000001         -19.556005477906940
  0.12420000000000003         -20.346298217775189
  0.12530000000000002         -21.026119232179560
  0.12640000000000001         -21.570360183717710
  0.12750000000000003         -21.952018737794916
  0.12860000000000002         -22.142042160036166
  0.12970000000000001         -22.112026214601617
  0.13080000000000003         -21.832094192506897
  0.13190000000000002         -21.275203704835981
  0.13300000000000001         -20.418138504030274
  0.13410000000000000         -19.237033843996027
  0.13520000000000004         -17.711263656618002
  0.13630000000000003         -15.819279670716995
  0.13740000000000002         -13.543975830079626
  0.13850000000000001         -10.870738983155601
  0.13960000000000000         -7.7963471412669412
  0.14070000000000005         -4.3221473693855694
  0.14180000000000004        -0.45496290922214777
  0.14290000000000003          3.7946512699125630
  0.14400000000000002          8.4057474136354742
  0.14510000000000001          13.352857589722312
  0.14620000000000000          18.597879409791116
  0.14730000000000004          24.093856811524986
  0.14840000000000003          29.787441253664156
  0.14950000000000002          35.621242523195924
  0.15060000000000001          41.528869628909341
  0.15170000000000000          47.436691284183325
  0.15280000000000005          53.265026092533475
  0.15390000000000004          58.931701660160968
  0.15500000000000003          64.347854614263056
  0.15610000000000002          69.421348571783099
  0.15720000000000001          74.067222595221068
  0.15830000000000000          78.194221496588696
  0.15940000000000004          81.715766906745344
  0.16050000000000003          84.545333862312091
  0.16160000000000002          86.607620239265501
  0.16270000000000001          87.838233947761807
  0.16380000000000000          88.181190490730685
  0.16490000000000005          87.587677001961211
  0.16600000000000004          86.022651672371339
  0.16710000000000003          83.459754943855586
  0.16820000000000002          79.893531799324123
  0.16930000000000001          75.337898254401949
  0.17040000000000000          69.820327758796083
  0.17150000000000004          63.380020141608092
  0.17260000000000003          56.068111419683689
  0.17370000000000002          47.954719543462325
  0.17480000000000001          39.129978179936202
  0.17590000000000000          29.701448440555520
  0.17700000000000005          19.784263610842746
  0.17810000000000004          9.4988727569600009
  0.17920000000000003         -1.0317035913456931
  0.18030000000000002         -11.676917076110763
  0.18140000000000001         -22.299434661866140
  0.18250000000000000         -32.753982543947203
  0.18360000000000004         -42.896350860598567
  0.18470000000000003         -52.589668273929583
  0.18580000000000002         -61.706867218022289
  0.18690000000000001         -70.136970520025088
  0.18800000000000000         -77.772064208990727
  0.18910000000000005         -84.514595031745344
  0.19020000000000004         -90.281394958503796
  0.19130000000000003         -95.004890441902774
  0.19240000000000002         -98.637733459481353
  0.19350000000000001         -101.15258789063404
  0.19460000000000005         -102.53356170655225
  0.19570000000000004         -102.79465484620083
  0.19680000000000003         -101.95889282227508
  0.19790000000000002         -100.05281829834922
  0.19900000000000001         -97.121894836434990
  0.20010000000000000         -93.236976623544095
  0.20120000000000005         -88.488281250008583
  0.20230000000000004         -82.978469848640970
  0.20340000000000003         -76.808204650886552
  0.20450000000000002         -70.071784973151608
  0.20560000000000000         -62.864555358893170
  0.20670000000000005         -55.302658081060471
  0.20780000000000004         -47.505550384526572
  0.20890000000000003         -39.595165252689917
