 -0.12000000000000000          0.0000000000000000
 -0.11889999999999999          0.0000000000000000
 -0.11780000000000000          0.0000000000000000
 -0.11670000000000000          0.0000000000000000
 -0.11559999999999999          0.0000000000000000
 -0.11449999999999999          0.0000000000000000
 -0.11340000000000000          0.0000000000000000
 -0.11230000000000000          0.0000000000000000
 -0.11119999999999999          0.0000000000000000
 -0.11009999999999999          0.0000000000000000
 -0.10900000000000000          0.0000000000000000
 -0.10790000000000000          0.0000000000000000
 -0.10679999999999999          0.0000000000000000
 -0.10569999999999999          0.0000000000000000
 -0.10460000000000000          0.0000000000000000
 -0.10349999999999999          0.0000000000000000
 -0.10239999999999999          0.0000000000000000
 -0.10130000000000000          1.4654613426170761E-037
 -0.10020000000000000          1.2455851924549245E-036
  -9.9099999999999994E-002    -3.8484109493190732E-036
  -9.7999999999999990E-002    -1.1084988640482204E-034
  -9.6899999999999986E-002    -7.4057948669303618E-034
  -9.5799999999999996E-002    -2.3004780767317260E-033
  -9.4699999999999993E-002    -2.6529977663660429E-034
  -9.3599999999999989E-002     3.0279129927393254E-032
  -9.2499999999999999E-002     1.4054730026934333E-031
  -9.1399999999999995E-002     2.8611121075991690E-031
  -9.0299999999999991E-002    -1.3109915863011762E-031
  -8.9200000000000002E-002    -2.8228580889799074E-030
  -8.8099999999999984E-002    -9.2065379594819941E-030
  -8.6999999999999994E-002    -1.2621639818903359E-029
  -8.5899999999999990E-002     1.6041192382055581E-029
  -8.4799999999999986E-002     1.2605702598150277E-028
  -8.3699999999999997E-002     3.0570045266015546E-028
  -8.2599999999999993E-002     2.7380594537138481E-028
  -8.1499999999999989E-002    -6.9334402444313797E-028
  -8.0399999999999999E-002    -3.2844347048393267E-027
  -7.9299999999999995E-002    -6.1994825945069925E-027
  -7.8199999999999992E-002    -3.1958966238079345E-027
  -7.7100000000000002E-002     1.6567020404198064E-026
  -7.5999999999999984E-002     5.6599777710500249E-026
  -7.4899999999999994E-002     8.5800203674354645E-026
  -7.3799999999999991E-002     1.5770685350048875E-026
  -7.2699999999999987E-002    -2.5986411885948018E-025
  -7.1599999999999997E-002    -7.0105585469686871E-025
  -7.0499999999999993E-002    -8.7293691163856202E-025
  -6.9399999999999989E-002     1.0581962606718985E-025
  -6.8300000000000000E-002     2.9362099062074917E-024
  -6.7199999999999996E-002     6.6156178985677295E-024
  -6.6099999999999992E-002     6.9046281352481203E-024
  -6.5000000000000002E-002    -2.7755149955094455E-024
  -6.3899999999999985E-002    -2.5328741211670816E-023
  -6.2799999999999995E-002    -4.9672744199910622E-023
  -6.1699999999999991E-002    -4.4572121048045362E-023
  -6.0599999999999994E-002     2.8437823477155024E-023
  -5.9499999999999990E-002     1.7357339314191580E-022
  -5.8399999999999994E-002     3.0723148470870502E-022
  -5.7299999999999990E-002     2.4639561717066617E-022
  -5.6199999999999986E-002    -1.9271653557850753E-022
  -5.5099999999999996E-002    -9.7280095302126487E-022
  -5.3999999999999992E-002    -1.6126405049088038E-021
  -5.2899999999999989E-002    -1.2240275796190535E-021
  -5.1799999999999985E-002     9.4931445603649659E-022
  -5.0699999999999995E-002     4.5615739218353344E-021
  -4.9599999999999991E-002     7.3778129070551193E-021
  -4.8499999999999988E-002     5.6828616707971454E-021
  -4.7399999999999998E-002    -3.3984158089179949E-021
  -4.6299999999999994E-002    -1.8242024074959325E-020
  -4.5199999999999990E-002    -3.0119704361064317E-020
  -4.4099999999999986E-002    -2.5063052341299625E-020
  -4.2999999999999997E-002     7.7440899363220204E-021
  -4.1899999999999993E-002     6.3298510035457262E-020
  -4.0799999999999989E-002     1.1175067903923621E-019
  -3.9699999999999985E-002     1.0402918066560098E-019
  -3.8599999999999995E-002    -9.2583633990998539E-022
  -3.7499999999999992E-002    -1.9360049791939094E-019
  -3.6399999999999988E-002    -3.8067133548086484E-019
  -3.5299999999999984E-002    -3.9763445754946049E-019
  -3.4199999999999994E-002    -9.3517317742488820E-020
  -3.3099999999999991E-002     5.2818806343597515E-019
  -3.1999999999999987E-002     1.1910815590480217E-018
  -3.0899999999999997E-002     1.3721987512259481E-018
  -2.9799999999999993E-002     5.6297959019268520E-019
  -2.8699999999999989E-002    -1.2862773296509572E-018
  -2.7599999999999986E-002    -3.3936846524692698E-018
  -2.6499999999999996E-002    -4.2238046513290047E-018
  -2.5399999999999992E-002    -2.2623410432840621E-018
  -2.4299999999999988E-002     2.7168288134064227E-018
  -2.3199999999999985E-002     8.6626903239922100E-018
  -2.2099999999999995E-002     1.1542851326021210E-017
  -2.0999999999999991E-002     7.4197894150853444E-018
  -1.9899999999999987E-002    -4.4262422170003323E-018
  -1.8799999999999983E-002    -1.9307475794867660E-017
  -1.7699999999999994E-002    -2.8037448989884933E-017
  -1.6599999999999990E-002    -2.1589701846487191E-017
  -1.5499999999999986E-002     2.4788754209545183E-018
  -1.4399999999999996E-002     3.5824765504475551E-017
  -1.3299999999999992E-002     6.0893145638552448E-017
  -1.2199999999999989E-002     5.8736354909381684E-017
  -1.1099999999999985E-002     1.9666341486178891E-017
  -9.9999999999999950E-003    -4.8593277641076796E-017
  -8.8999999999999913E-003    -1.1937683988419103E-016
  -7.7999999999999875E-003    -1.5348112596283794E-016
  -6.6999999999999837E-003    -1.1300884618673320E-016
  -5.5999999999999939E-003     1.8411867493321796E-017
  -4.4999999999999901E-003     2.1278425841049606E-016
  -3.3999999999999864E-003     3.8385910572075307E-016
  -2.2999999999999826E-003     4.0260548009070764E-016
  -1.1999999999999927E-003     1.5908217103122641E-016
  -9.9999999999988987E-005    -3.3990820721406273E-016
   1.0000000000000148E-003    -8.9328009914143788E-016
   2.1000000000000185E-003    -1.1326098936628509E-015
   3.2000000000000084E-003    -7.0515466389140902E-016
   4.3000000000000121E-003     4.4172662320193356E-016
   5.4000000000000159E-003     1.8540543246189402E-015
   6.5000000000000058E-003     2.6572550109187250E-015
   7.6000000000000234E-003     2.0128816843168309E-015
   8.7000000000000133E-003    -2.4758521585336983E-016
   9.8000000000000032E-003    -3.2337761280061030E-015
   1.0900000000000021E-002    -5.2422348180306087E-015
   1.2000000000000011E-002    -4.6641657482321235E-015
   1.3100000000000001E-002    -1.0833485750329089E-015
   1.4200000000000018E-002     4.1690444973758838E-015
   1.5300000000000008E-002     8.4871871222592585E-015
   1.6400000000000026E-002     9.3144554027223270E-015
   1.7500000000000016E-002     5.5384608744102771E-015
   1.8600000000000005E-002    -1.8746660243574263E-015
   1.9700000000000023E-002    -1.0269116591419495E-014
   2.0800000000000013E-002    -1.6272197483771858E-014
   2.1900000000000003E-002    -1.6732046588638534E-014
   2.3000000000000020E-002    -9.5050098637672852E-015
   2.4100000000000010E-002     5.4558933732613488E-015
   2.5200000000000000E-002     2.4525933855438359E-014
   2.6300000000000018E-002     3.9416627378502031E-014
   2.7400000000000008E-002     3.8933161301000010E-014
   2.8500000000000025E-002     1.4855499304105256E-014
   2.9600000000000015E-002    -2.9926958128442468E-014
   3.0700000000000005E-002    -7.6674133893134960E-014
   3.1800000000000023E-002    -9.5751633347445492E-014
   3.2900000000000013E-002    -6.2670958104072555E-014
   3.4000000000000002E-002     2.2126523296960368E-014
   3.5100000000000020E-002     1.2348345815923339E-013
   3.6200000000000010E-002     1.8302870883387529E-013
   3.7300000000000028E-002     1.5080487856741764E-013
   3.8400000000000017E-002     2.0404217323990309E-014
   3.9500000000000007E-002    -1.5594705973613621E-013
   4.0600000000000025E-002    -2.8689754023002167E-013
   4.1700000000000015E-002    -2.8935125237668224E-013
   4.2800000000000005E-002    -1.3746313386620718E-013
   4.3900000000000022E-002     1.1630412887105035E-013
   4.5000000000000012E-002     3.6124388528256668E-013
   4.6100000000000002E-002     4.7809965621897765E-013
   4.7200000000000020E-002     3.9164445341313692E-013
   4.8300000000000010E-002     1.0313567355832096E-013
   4.9400000000000027E-002    -3.0427358766252355E-013
   5.0500000000000017E-002    -6.8204800531337928E-013
   5.1600000000000007E-002    -8.5143518754535186E-013
   5.2700000000000025E-002    -6.6194277706724258E-013
   5.3800000000000014E-002    -7.2867249343785967E-014
   5.4900000000000004E-002     7.6918365340267192E-013
   5.6000000000000022E-002     1.5150884019599076E-012
   5.7100000000000012E-002     1.7177512667485018E-012
   5.8200000000000002E-002     1.0564351043268472E-012
   5.9300000000000019E-002    -4.1328271642611381E-013
   6.0400000000000009E-002    -2.1449099007336825E-012
   6.1500000000000027E-002    -3.2542469153434839E-012
   6.2600000000000017E-002    -2.9351469171823297E-012
   6.3700000000000007E-002    -9.5386231465516280E-013
   6.4800000000000024E-002     2.0638128792743737E-012
   6.5900000000000014E-002     4.7748411127757073E-012
   6.7000000000000004E-002     5.6952558988299096E-012
   6.8100000000000022E-002     3.9607475285641236E-012
   6.9200000000000012E-002    -1.1543722791898525E-013
   7.0300000000000029E-002    -5.0043892640960763E-012
   7.1400000000000019E-002    -8.5161582646930967E-012
   7.2500000000000009E-002    -8.7339666748897926E-012
   7.3600000000000027E-002    -4.9324580878029600E-012
   7.4700000000000016E-002     1.9191083184405544E-012
   7.5800000000000006E-002     9.3130832906629379E-012
   7.6900000000000024E-002     1.4027666181415377E-011
   7.8000000000000014E-002     1.3388018124671497E-011
   7.9100000000000004E-002     6.5420151934558746E-012
   8.0200000000000021E-002    -4.7673432042316666E-012
   8.1300000000000011E-002    -1.6388430543190502E-011
   8.2400000000000029E-002    -2.3085137967893132E-011
   8.3500000000000019E-002    -2.0705732267645161E-011
   8.4600000000000009E-002    -8.3939626083218144E-012
   8.5700000000000026E-002     1.0236378585049000E-011
   8.6800000000000016E-002     2.7831233845310166E-011
   8.7900000000000006E-002     3.6046648305143592E-011
   8.9000000000000024E-002     2.9401595741385123E-011
   9.0100000000000013E-002     8.5062191665374876E-012
   9.1200000000000003E-002    -1.9128204228890944E-011
   9.2300000000000021E-002    -4.1599900607591778E-011
   9.3400000000000011E-002    -4.7782632017767668E-011
   9.4500000000000028E-002    -3.2962247514811693E-011
   9.5600000000000018E-002    -2.1243480065324949E-012
   9.6700000000000008E-002     3.1176790316056469E-011
   9.7800000000000026E-002     5.0480293556365297E-011
   9.8900000000000016E-002     4.4414232708289703E-011
  0.10000000000000001          1.3323894071382014E-011
  0.10110000000000002         -2.8993646025710085E-011
  0.10220000000000001         -6.0029807513739541E-011
  0.10330000000000003         -5.8437067684824484E-011
  0.10440000000000002         -1.5104362205420330E-011
  0.10550000000000001          5.9531164720016960E-011
  0.10660000000000003          1.3584813829403686E-010
  0.10770000000000002          1.7418554099091210E-010
  0.10880000000000001          1.4034336193180508E-010
  0.10990000000000003          2.2059683940645058E-011
  0.11100000000000002         -1.6015892778664664E-010
  0.11210000000000001         -3.5334671300013554E-010
  0.11320000000000002         -4.8553672193918374E-010
  0.11430000000000001         -4.8940734798108565E-010
  0.11540000000000003         -3.2839017616304034E-010
  0.11650000000000002         -1.5071950631995179E-011
  0.11760000000000001          3.8669251134493265E-010
  0.11870000000000003          7.7872336357032168E-010
  0.11980000000000002          1.0591481025556959E-009
  0.12090000000000001          1.1545160383263919E-009
  0.12200000000000003          1.0393893523641395E-009
  0.12310000000000001          7.3443373604931139E-010
  0.12420000000000003          2.8432903254049791E-010
  0.12530000000000002         -2.7224389409497007E-010
  0.12640000000000001         -9.2239171856078883E-010
  0.12750000000000003         -1.6733786578626564E-009
  0.12860000000000002         -2.5179138773978593E-009
  0.12970000000000001         -3.3821727640770405E-009
  0.13080000000000003         -4.0807321965985466E-009
  0.13190000000000002         -4.3055874421327189E-009
  0.13300000000000001         -3.6676124359757978E-009
  0.13410000000000000         -1.7909287386430606E-009
  0.13520000000000004          1.5594161517640259E-009
  0.13630000000000003          6.3502216818278612E-009
  0.13740000000000002          1.2189463660661204E-008
  0.13850000000000001          1.8297521720000987E-008
  0.13960000000000000          2.3545819516357369E-008
  0.14070000000000005          2.6546723930209737E-008
  0.14180000000000004          2.5762602717804839E-008
  0.14290000000000003          1.9597129252701961E-008
  0.14400000000000002          6.4390266452107880E-009
  0.14510000000000001         -1.5355539062511525E-008
  0.14620000000000000         -4.7536776293100047E-008
  0.14730000000000004         -9.2071282153938228E-008
  0.14840000000000003         -1.5126312291613431E-007
  0.14950000000000002         -2.2786815634390223E-007
  0.15060000000000001         -3.2520233617105987E-007
  0.15170000000000000         -4.4726701275976666E-007
  0.15280000000000005         -5.9892983017562074E-007
  0.15390000000000004         -7.8620070098622818E-007
  0.15500000000000003         -1.0166235142605728E-006
  0.15610000000000002         -1.2997687690585735E-006
  0.15720000000000001         -1.6477821418448002E-006
  0.15830000000000000         -2.0759257495228667E-006
  0.15940000000000004         -2.6030604658444645E-006
  0.16050000000000003         -3.2520615604880732E-006
  0.16160000000000002         -4.0502154661226086E-006
  0.16270000000000001         -5.0296871449972969E-006
  0.16380000000000000         -6.2281728787638713E-006
  0.16490000000000005         -7.6898286351934075E-006
  0.16600000000000004         -9.4664937932975590E-006
  0.16710000000000003         -1.1619174983934499E-005
  0.16820000000000002         -1.4219692275219131E-005
  0.16930000000000001         -1.7352391296299174E-005
  0.17040000000000000         -2.1115869458299130E-005
  0.17150000000000004         -2.5624702175264247E-005
  0.17260000000000003         -3.1011248211143538E-005
  0.17370000000000002         -3.7427653296617791E-005
  0.17480000000000001         -4.5048091124044731E-005
  0.17590000000000000         -5.4071373597253114E-005
  0.17700000000000005         -6.4723739342298359E-005
  0.17810000000000004         -7.7261982369236648E-005
  0.17920000000000003         -9.1976478870492429E-005
  0.18030000000000002         -1.0919429041678086E-004
  0.18140000000000001         -1.2928206706419587E-004
  0.18250000000000000         -1.5264876128640026E-004
  0.18360000000000004         -1.7974806542042643E-004
  0.18470000000000003         -2.1108078362885863E-004
  0.18580000000000002         -2.4719670182093978E-004
  0.18690000000000001         -2.8869643574580550E-004
  0.18800000000000000         -3.3623259514570236E-004
  0.18910000000000005         -3.9051074418239295E-004
  0.19020000000000004         -4.5228953240439296E-004
  0.19130000000000003         -5.2237993804737926E-004
  0.19240000000000002         -6.0164328897371888E-004
  0.19350000000000001         -6.9098809035494924E-004
  0.19460000000000005         -7.9136464046314359E-004
  0.19570000000000004         -9.0375862782821059E-004
  0.19680000000000003         -1.0291830403730273E-003
  0.19790000000000002         -1.1686680372804403E-003
  0.19900000000000001         -1.3232493074610829E-003
  0.20010000000000000         -1.4939553802832961E-003
  0.20120000000000005         -1.6817915020510554E-003
  0.20230000000000004         -1.8877217080444098E-003
  0.20340000000000003         -2.1126491483300924E-003
  0.20450000000000002         -2.3573942016810179E-003
  0.20560000000000000         -2.6226697955280542E-003
  0.20670000000000005         -2.9090556781738997E-003
  0.20780000000000004         -3.2169704791158438E-003
  0.20890000000000003         -3.5466451663523912E-003
