 -0.12000000000000000          0.0000000000000000
 -0.11889999999999999          0.0000000000000000
 -0.11780000000000000          0.0000000000000000
 -0.11670000000000000          0.0000000000000000
 -0.11559999999999999          0.0000000000000000
 -0.11449999999999999          0.0000000000000000
 -0.11340000000000000          0.0000000000000000
 -0.11230000000000000          0.0000000000000000
 -0.11119999999999999          0.0000000000000000
 -0.11009999999999999          0.0000000000000000
 -0.10900000000000000          0.0000000000000000
 -0.10790000000000000         -3.0367700855333821E-033
 -0.10679999999999999          2.4294154806795302E-032
 -0.10569999999999999          5.3750819254909034E-031
 -0.10460000000000000         -1.0142811310589909E-030
 -0.10349999999999999         -2.5660705016868461E-030
 -0.10239999999999999         -4.1178597782751532E-030
 -0.10130000000000000         -2.8992037575347403E-029
 -0.10020000000000000         -5.3866214243945075E-029
  -9.9099999999999994E-002     2.0112828261801033E-028
  -9.7999999999999990E-002     1.3268253313898597E-027
  -9.6899999999999986E-002    -2.0253764926236374E-027
  -9.5799999999999996E-002    -3.3874010826420904E-027
  -9.4699999999999993E-002     1.2211056441386000E-027
  -9.3599999999999989E-002     1.8492580955221967E-027
  -9.2499999999999999E-002    -1.3444007902833543E-026
  -9.1399999999999995E-002    -4.8551461302837808E-027
  -9.0299999999999991E-002     1.3906577448727678E-025
  -8.9200000000000002E-002     1.5561534904766661E-025
  -8.8099999999999984E-002    -8.2577768506285033E-026
  -8.6999999999999994E-002     6.1343155192763438E-026
  -8.5899999999999990E-002     2.0526407272883609E-025
  -8.4799999999999986E-002     2.3871264285720273E-024
  -8.3699999999999997E-002     4.9310575988956166E-025
  -8.2599999999999993E-002    -3.8194421429124800E-025
  -8.1499999999999989E-002     1.7999178950329103E-024
  -8.0399999999999999E-002     8.0576635219207913E-024
  -7.9299999999999995E-002     3.0618941838556979E-023
  -7.8199999999999992E-002     3.6876685098862144E-023
  -7.7100000000000002E-002     2.6830898036001719E-023
  -7.5999999999999984E-002     1.6785110973141293E-023
  -7.4899999999999994E-002     1.0456051531560527E-022
  -7.3799999999999991E-002     2.9300600649195245E-023
  -7.2699999999999987E-002    -1.4378050226709557E-022
  -7.1599999999999997E-002    -3.1686162096060449E-022
  -7.0499999999999993E-002    -3.5951448444701420E-022
  -6.9399999999999989E-002     1.1954569813852189E-022
  -6.8300000000000000E-002     8.5946236589470744E-022
  -6.7199999999999996E-002     3.4239949077597121E-023
  -6.6099999999999992E-002    -1.8344085157071941E-021
  -6.5000000000000002E-002    -3.1813441079694387E-021
  -6.3899999999999985E-002    -2.8327125213789129E-021
  -6.2799999999999995E-002     2.7330495764181690E-021
  -6.1699999999999991E-002     3.0816813649570865E-021
  -6.0599999999999994E-002     2.3868872128134063E-021
  -5.9499999999999990E-002     1.2695404867163346E-022
  -5.8399999999999994E-002    -8.3935349615141180E-021
  -5.7299999999999990E-002    -2.1087728946120611E-020
  -5.6199999999999986E-002    -8.7396979309640558E-021
  -5.5099999999999996E-002     1.1955742225240416E-020
  -5.3999999999999992E-002     3.4738034666706866E-020
  -5.2899999999999989E-002     4.0825508826077484E-020
  -5.1799999999999985E-002     1.3523351268017838E-020
  -5.0699999999999995E-002    -3.8821033713185557E-020
  -4.9599999999999991E-002    -8.8817710479314400E-020
  -4.8499999999999988E-002    -2.1950670579882352E-020
  -4.7399999999999998E-002     2.1186454244698522E-019
  -4.6299999999999994E-002     3.7890049688575367E-019
  -4.5199999999999990E-002     2.7881939758508000E-019
  -4.4099999999999986E-002    -1.3846322322602034E-019
  -4.2999999999999997E-002    -6.8930439029388735E-019
  -4.1899999999999993E-002    -1.0398076992025131E-018
  -4.0799999999999989E-002    -5.2218061253852050E-019
  -3.9699999999999985E-002     9.6374585693884802E-019
  -3.8599999999999995E-002     2.7167893155321733E-018
  -3.7499999999999992E-002     3.0006890754937950E-018
  -3.6399999999999988E-002     6.8019749364119650E-019
  -3.5299999999999984E-002    -3.6102827230468927E-018
  -3.4199999999999994E-002    -7.0994116104955936E-018
  -3.3099999999999991E-002    -5.2461986476736281E-018
  -3.1999999999999987E-002     3.0178239150876778E-018
  -3.0899999999999997E-002     1.2884548205749571E-017
  -2.9799999999999993E-002     1.5138435876763648E-017
  -2.8699999999999989E-002     3.2351190921265297E-018
  -2.7599999999999986E-002    -1.8017295723689101E-017
  -2.6499999999999996E-002    -3.1790430294764574E-017
  -2.5399999999999992E-002    -1.7716615571026076E-017
  -2.4299999999999988E-002     2.6274313514228155E-017
  -2.3199999999999985E-002     7.1333713451078357E-017
  -2.2099999999999995E-002     6.6175110748732256E-017
  -2.0999999999999991E-002    -1.5913216251872666E-017
  -1.9899999999999987E-002    -1.3245964756633793E-016
  -1.8799999999999983E-002    -1.7741871380360790E-016
  -1.7699999999999994E-002    -5.9970587792649606E-017
  -1.6599999999999990E-002     1.9424147635034795E-016
  -1.5499999999999986E-002     3.9823553123670430E-016
  -1.4399999999999996E-002     3.1160621593811599E-016
  -1.3299999999999992E-002    -1.4257622527653907E-016
  -1.2199999999999989E-002    -7.0360549357044010E-016
  -1.1099999999999985E-002    -8.4579522036012499E-016
  -9.9999999999999950E-003    -2.3150935107765086E-016
  -8.8999999999999913E-003     8.9136749874653767E-016
  -7.7999999999999875E-003     1.6295956757942341E-015
  -6.6999999999999837E-003     1.1113051092152739E-015
  -5.5999999999999939E-003    -7.0624283653083477E-016
  -4.4999999999999901E-003    -2.5814881255450646E-015
  -3.3999999999999864E-003    -2.6958975010054134E-015
  -2.2999999999999826E-003    -2.2888762528722119E-016
  -1.1999999999999927E-003     3.4689980244915694E-015
  -9.9999999999988987E-005     5.2692839681682275E-015
   1.0000000000000148E-003     2.6503849384417822E-015
   2.1000000000000185E-003    -3.5243766150665819E-015
   3.2000000000000084E-003    -8.6050271929142240E-015
   4.3000000000000121E-003    -7.3090591603186192E-015
   5.4000000000000159E-003     1.4020793439090584E-015
   6.5000000000000058E-003     1.1711647581911459E-014
   7.6000000000000234E-003     1.4259862347464243E-014
   8.7000000000000133E-003     3.9180758348844862E-015
   9.8000000000000032E-003    -1.3672200206021629E-014
   1.0900000000000021E-002    -2.3934920004623460E-014
   1.2000000000000011E-002    -1.4418155864647127E-014
   1.3100000000000001E-002     1.2365057267752898E-014
   1.4200000000000018E-002     3.6412990949297869E-014
   1.5300000000000008E-002     3.3638097461565625E-014
   1.6400000000000026E-002    -2.1994792309486906E-015
   1.7500000000000016E-002    -4.7815680722599480E-014
   1.8600000000000005E-002    -6.3378006998331821E-014
   1.9700000000000023E-002    -2.5226294577546104E-014
   2.0800000000000013E-002     4.6669780670235972E-014
   2.1900000000000003E-002     9.5042463482686301E-014
   2.3000000000000020E-002     6.8878794811863542E-014
   2.4100000000000010E-002    -2.6829338311542758E-014
   2.5200000000000000E-002    -1.2082792177816465E-013
   2.6300000000000018E-002    -1.2490422379111271E-013
   2.7400000000000008E-002    -1.2936321698369616E-014
   2.8500000000000025E-002     1.4060780805739276E-013
   2.9600000000000015E-002     2.0429803140008251E-013
   3.0700000000000005E-002     9.6349509859199045E-014
   3.1800000000000023E-002    -1.3176323909996207E-013
   3.2900000000000013E-002    -3.0845275335658617E-013
   3.4000000000000002E-002    -2.6577289089120548E-013
   3.5100000000000020E-002     1.4876236364719936E-014
   3.6200000000000010E-002     3.5953087295509389E-013
   3.7300000000000028E-002     5.0262967616135357E-013
   3.8400000000000017E-002     2.8617605789434120E-013
   3.9500000000000007E-002    -1.9642017775722137E-013
   4.0600000000000025E-002    -6.1323298869431220E-013
   4.1700000000000015E-002    -6.2194216790545376E-013
   4.2800000000000005E-002    -1.6191002260700776E-013
   4.3900000000000022E-002     4.8118063353252971E-013
   4.5000000000000012E-002     8.0961165506085453E-013
   4.6100000000000002E-002     5.0797126921464653E-013
   4.7200000000000020E-002    -3.1583389332665024E-013
   4.8300000000000010E-002    -1.1018921235519952E-012
   4.9400000000000027E-002    -1.1352016332163983E-012
   5.0500000000000017E-002    -1.6083445339432068E-013
   5.1600000000000007E-002     1.3069770959939220E-012
   5.2700000000000025E-002     2.1981917154578756E-012
   5.3800000000000014E-002     1.5937559431911108E-012
   5.4900000000000004E-002    -7.1968201797306675E-013
   5.6000000000000022E-002    -3.2716364339879789E-012
   5.7100000000000012E-002    -3.9504718940541750E-012
   5.8200000000000002E-002    -1.4892075203207233E-012
   5.9300000000000019E-002     2.7467054238700106E-012
   6.0400000000000009E-002     5.4596153986619100E-012
   6.1500000000000027E-002     4.4744286400999478E-012
   6.2600000000000017E-002    -7.1214648761364074E-013
   6.3700000000000007E-002    -7.5092536355736428E-012
   6.4800000000000024E-002    -1.1557953379093266E-011
   6.5900000000000014E-002    -6.1710359045008545E-012
   6.7000000000000004E-002     7.8549866264210344E-012
   6.8100000000000022E-002     2.2511216848930538E-011
   6.9200000000000012E-002     2.1517275808347058E-011
   7.0300000000000029E-002    -1.0087798651969848E-012
   7.1400000000000019E-002    -2.6598346788975213E-011
   7.2500000000000009E-002    -2.9745497731603621E-011
   7.3600000000000027E-002    -2.1875066862075965E-012
   7.4700000000000016E-002     3.5033680817475599E-011
   7.5800000000000006E-002     3.7243298722788865E-011
   7.6900000000000024E-002    -1.1173809273679058E-011
   7.8000000000000014E-002    -6.4212447858924548E-011
   7.9100000000000004E-002    -6.6764399564434029E-011
   8.0200000000000021E-002    -1.2247494685091453E-011
   8.1300000000000011E-002     5.8234687905223126E-011
   8.2400000000000029E-002     8.2361562014909850E-011
   8.3500000000000019E-002     3.9686354896817377E-011
   8.4600000000000009E-002    -5.8587225348905037E-011
   8.5700000000000026E-002    -1.3641406060305172E-010
   8.6800000000000016E-002    -1.2545156580223704E-010
   8.7900000000000006E-002    -5.0067779783224964E-011
   8.9000000000000024E-002     3.1758137786219720E-011
   9.0100000000000013E-002     8.3334054934436352E-011
   9.1200000000000003E-002     1.1474330513516762E-010
   9.2300000000000021E-002     1.2430534379603841E-010
   9.3400000000000011E-002     1.0081645240855863E-010
   9.4500000000000028E-002    -9.5011169071179680E-012
   9.5600000000000018E-002    -1.4670757664259071E-010
   9.6700000000000008E-002    -1.0353443102850690E-010
   9.7800000000000026E-002     1.4466645936739297E-010
   9.8900000000000016E-002     3.7830255594784035E-010
  0.10000000000000001          4.4500347851084143E-010
  0.10110000000000002          3.9518591177234441E-010
  0.10220000000000001          3.6105352041460037E-010
  0.10330000000000003          1.6782857048536215E-010
  0.10440000000000002         -1.5311857337607648E-010
  0.10550000000000001         -5.7041754653042176E-010
  0.10660000000000003         -6.4040178715529805E-010
  0.10770000000000002          2.0095335118153201E-011
  0.10880000000000001          9.7637009588424917E-010
  0.10990000000000003          1.4620894495109837E-009
  0.11100000000000002          7.5573491908897950E-010
  0.11210000000000001         -4.8839743360673538E-010
  0.11320000000000002         -1.4143447524261887E-009
  0.11430000000000001         -1.7128848339709180E-009
  0.11540000000000003         -1.2764620471727994E-009
  0.11650000000000002         -7.5489109407911315E-010
  0.11760000000000001         -6.1872745815705343E-010
  0.11870000000000003         -1.0561933549979585E-009
  0.11980000000000002         -1.0006964146214159E-009
  0.12090000000000001         -5.7866288150076883E-011
  0.12200000000000003          7.6844541840870306E-010
  0.12310000000000001          1.2989794795359444E-009
  0.12420000000000003          5.8366178556923387E-010
  0.12530000000000002         -9.2039659227438619E-010
  0.12640000000000001         -1.7074180957976637E-009
  0.12750000000000003         -5.8532872992955731E-010
  0.12860000000000002          2.4817232713303383E-009
  0.12970000000000001          5.3874420480326535E-009
  0.13080000000000003          4.1522723037701326E-009
  0.13190000000000002         -3.0956365248968609E-010
  0.13300000000000001         -4.8431032517726180E-009
  0.13410000000000000         -6.3471619071719942E-009
  0.13520000000000004         -3.4952214456041020E-009
  0.13630000000000003          3.9642278348850368E-010
  0.13740000000000002          1.8501412624161162E-009
  0.13850000000000001         -1.0879911416239452E-009
  0.13960000000000000         -5.4422715223267915E-009
  0.14070000000000005         -5.1895900909926240E-009
  0.14180000000000004          3.5123887132115783E-010
  0.14290000000000003          6.9855490281156563E-009
  0.14400000000000002          8.7619342892253371E-009
  0.14510000000000001          3.4934322101776161E-009
  0.14620000000000000         -2.7430697713271002E-009
  0.14730000000000004         -4.4174242042060996E-009
  0.14840000000000003          6.8422045806926235E-010
  0.14950000000000002          7.1751244945517101E-009
  0.15060000000000001          7.2933628025850794E-009
  0.15170000000000000         -4.4891637629440595E-010
  0.15280000000000005         -9.7417878208716502E-009
  0.15390000000000004         -1.2850216890569754E-008
  0.15500000000000003         -8.0757205367376628E-009
  0.15610000000000002         -5.4063137300275343E-010
  0.15720000000000001          3.2882732092787137E-009
  0.15830000000000000          2.1696233698520473E-009
  0.15940000000000004          2.5274591447521644E-011
  0.16050000000000003          5.8157811899661738E-010
  0.16160000000000002          3.5556406707826227E-009
  0.16270000000000001          5.3914073205874047E-009
  0.16380000000000000          3.6240634937456662E-009
  0.16490000000000005         -1.0696875607507650E-009
  0.16600000000000004         -4.4279571120853234E-009
  0.16710000000000003         -3.0268938466804229E-009
  0.16820000000000002          2.2820207945528637E-009
  0.16930000000000001          6.9814536374224190E-009
  0.17040000000000000          7.3607386852359014E-009
  0.17150000000000004          2.7297284432847846E-009
  0.17260000000000003          5.9042115641005921E-010
  0.17370000000000002          4.3308165942335108E-009
  0.17480000000000001          1.0114766801905262E-008
  0.17590000000000000          1.2259754100796272E-008
  0.17700000000000005          7.8259283498027798E-009
  0.17810000000000004         -1.5196014446772210E-009
  0.17920000000000003         -8.8753546734210431E-009
  0.18030000000000002         -8.5767375423984049E-009
  0.18140000000000001         -3.9938252704985189E-009
  0.18250000000000000         -2.8347637570647066E-009
  0.18360000000000004         -7.2685901741920134E-009
  0.18470000000000003         -1.5215897875009432E-008
  0.18580000000000002         -2.1549871220827299E-008
  0.18690000000000001         -1.9028439268709008E-008
  0.18800000000000000         -8.9243421541596035E-009
  0.18910000000000005          1.2156066153679035E-009
  0.19020000000000004          7.6628152712032715E-009
  0.19130000000000003          6.3660241522711658E-009
  0.19240000000000002         -1.3824708045007128E-010
  0.19350000000000001         -6.7142220672167241E-009
  0.19460000000000005         -8.8266425279925897E-009
  0.19570000000000004         -6.3679519435311249E-009
  0.19680000000000003         -1.3100028839474476E-009
  0.19790000000000002          2.6992796886560200E-009
  0.19900000000000001          3.2578220121592949E-009
  0.20010000000000000          9.3925356381419078E-010
  0.20120000000000005         -2.4279813715111231E-009
  0.20230000000000004         -5.2036610576067233E-009
  0.20340000000000003         -6.5407852467558314E-009
  0.20450000000000002         -7.2146506546744149E-009
  0.20560000000000000         -7.3843495762559996E-009
  0.20670000000000005         -6.3261222926769278E-009
  0.20780000000000004         -3.6814509218885405E-009
  0.20890000000000003         -1.7969643828497084E-010
