 -0.12000000000000000          0.0000000000000000
 -0.11889999999999999          0.0000000000000000
 -0.11780000000000000          0.0000000000000000
 -0.11670000000000000          0.0000000000000000
 -0.11559999999999999          0.0000000000000000
 -0.11449999999999999          0.0000000000000000
 -0.11340000000000000          0.0000000000000000
 -0.11230000000000000          0.0000000000000000
 -0.11119999999999999          0.0000000000000000
 -0.11009999999999999          0.0000000000000000
 -0.10900000000000000          0.0000000000000000
 -0.10790000000000000         -1.3979446009657140E-025
 -0.10679999999999999         -1.7076268883636148E-024
 -0.10569999999999999         -8.7932337175505029E-024
 -0.10460000000000000         -1.8991890979790087E-023
 -0.10349999999999999          3.0642853790316038E-023
 -0.10239999999999999          3.5618942942062040E-022
 -0.10130000000000000          1.1820504859384923E-021
 -0.10020000000000000          1.6663786690273198E-021
  -9.9099999999999994E-002    -2.2508893093146336E-021
  -9.7999999999999990E-002    -1.7763729503970412E-020
  -9.6899999999999986E-002    -4.4154742770541496E-020
  -9.5799999999999996E-002    -4.5040611201320307E-020
  -9.4699999999999993E-002     7.3048888581229004E-020
  -9.3599999999999989E-002     4.0122449895612306E-019
  -9.2499999999999999E-002     8.0686991639482406E-019
  -9.1399999999999995E-002     6.3208106949323458E-019
  -9.0299999999999991E-002    -1.2446968214142948E-018
  -8.9200000000000002E-002    -5.3009046510751288E-018
  -8.8099999999999984E-002    -9.1233554789291166E-018
  -8.6999999999999994E-002    -5.8062611337373567E-018
  -8.5899999999999990E-002     1.3111777201559725E-017
  -8.4799999999999986E-002     4.7104054753460827E-017
  -8.3699999999999997E-002     7.2475560186091456E-017
  -8.2599999999999993E-002     4.0049425046967629E-017
  -8.1499999999999989E-002    -9.4696404148679057E-017
  -8.0399999999999999E-002    -3.0581825452107015E-016
  -7.9299999999999995E-002    -4.3626564297230747E-016
  -7.8199999999999992E-002    -2.2669068651983955E-016
  -7.7100000000000002E-002     4.9686153298593287E-016
  -7.5999999999999984E-002     1.5247936656589988E-015
  -7.4899999999999994E-002     2.0858120681083734E-015
  -7.3799999999999991E-002     1.1104111718185654E-015
  -7.2699999999999987E-002    -1.9332355998029826E-015
  -7.1599999999999997E-002    -6.0054631725165158E-015
  -7.0499999999999993E-002    -8.1623889505028080E-015
  -6.9399999999999989E-002    -4.8191562604371890E-015
  -6.8300000000000000E-002     5.4154687258536373E-015
  -6.7199999999999996E-002     1.8892714134669322E-014
  -6.6099999999999992E-002     2.6657165312486165E-014
  -6.5000000000000002E-002     1.8588841064841842E-014
  -6.3899999999999985E-002    -9.0538479288076491E-015
  -6.2799999999999995E-002    -4.7094401674826342E-014
  -6.1699999999999991E-002    -7.3560325582547326E-014
  -6.0599999999999994E-002    -6.3337803426523342E-014
  -5.9499999999999990E-002    -4.2591738851614248E-015
  -5.8399999999999994E-002     8.8984585487877216E-014
  -5.7299999999999990E-002     1.7276224938481133E-013
  -5.6199999999999986E-002     1.8924537501310845E-013
  -5.5099999999999996E-002     9.5017018612950782E-014
  -5.3999999999999992E-002    -1.0683445637480957E-013
  -5.2899999999999989E-002    -3.4618296185402742E-013
  -5.1799999999999985E-002    -4.9325745311162850E-013
  -5.0699999999999995E-002    -4.0606824543501507E-013
  -4.9599999999999991E-002    -1.4779417110716980E-014
  -4.8499999999999988E-002     5.8866952111491511E-013
  -4.7399999999999998E-002     1.1177313415100532E-012
  -4.6299999999999994E-002     1.1800529086877787E-012
  -4.5199999999999990E-002     4.9913664781214839E-013
  -4.4099999999999986E-002    -8.2379497104087540E-013
  -4.2999999999999997E-002    -2.1916281723460829E-012
  -4.1899999999999993E-002    -2.7060625875513500E-012
  -4.0799999999999989E-002    -1.6759219879924903E-012
  -3.9699999999999985E-002     8.1181881963349189E-013
  -3.8599999999999995E-002     3.6633200813096511E-012
  -3.7499999999999992E-002     5.1820327542917433E-012
  -3.6399999999999988E-002     4.0122631779493378E-012
  -3.5299999999999984E-002     1.0507699175826488E-013
  -3.4199999999999994E-002    -4.9453258328668870E-012
  -3.3099999999999991E-002    -8.5264703283960408E-012
  -3.1999999999999987E-002    -8.3248295409954487E-012
  -3.0899999999999997E-002    -3.6096162950999267E-012
  -2.9799999999999993E-002     4.2150627606318825E-012
  -2.8699999999999989E-002     1.2019965751897121E-011
  -2.7599999999999986E-002     1.6048459436368567E-011
  -2.6499999999999996E-002     1.3273667755220320E-011
  -2.5399999999999992E-002     2.7568698192370622E-012
  -2.4299999999999988E-002    -1.3174862242837371E-011
  -2.3199999999999985E-002    -2.8452443526227889E-011
  -2.2099999999999995E-002    -3.4469028326045148E-011
  -2.0999999999999991E-002    -2.3694485609682125E-011
  -1.9899999999999987E-002     5.0666424181167180E-012
  -1.8799999999999983E-002     4.2640738162624814E-011
  -1.7699999999999994E-002     7.0450992262216516E-011
  -1.6599999999999990E-002     6.8358214921904192E-011
  -1.5499999999999986E-002     2.6817145726276692E-011
  -1.4399999999999996E-002    -4.3467160426580165E-011
  -1.3299999999999992E-002    -1.1173198477543167E-010
  -1.2199999999999989E-002    -1.3982552615754429E-010
  -1.1099999999999985E-002    -1.0227615282465408E-010
  -9.9999999999999950E-003    -3.0201399107282478E-012
  -8.8999999999999913E-003     1.2136755489500217E-010
  -7.7999999999999875E-003     2.1515329795551708E-010
  -6.6999999999999837E-003     2.2785068276576226E-010
  -5.5999999999999939E-003     1.3824749678370551E-010
  -4.4999999999999901E-003    -3.2573936603608189E-011
  -3.3999999999999864E-003    -2.2459070714297980E-010
  -2.2999999999999826E-003    -3.5787317553825915E-010
  -1.1999999999999927E-003    -3.6213826382081038E-010
  -9.9999999999988987E-005    -2.0842122472330971E-010
   1.0000000000000148E-003     6.8562669430782819E-011
   2.1000000000000185E-003     3.7013192510926274E-010
   3.2000000000000084E-003     5.6376275869851611E-010
   4.3000000000000121E-003     5.3920834464094014E-010
   5.4000000000000159E-003     2.6906346595190200E-010
   6.5000000000000058E-003    -1.5862473834449276E-010
   7.6000000000000234E-003    -5.6185400776342931E-010
   8.7000000000000133E-003    -7.4141220940404651E-010
   9.8000000000000032E-003    -5.8185423146284165E-010
   1.0900000000000021E-002    -1.2566345186648675E-010
   1.2000000000000011E-002     4.2390235766021078E-010
   1.3100000000000001E-002     7.8331346964333193E-010
   1.4200000000000018E-002     7.2247857696439155E-010
   1.5300000000000008E-002     1.9168151788040433E-010
   1.6400000000000026E-002    -6.2052812888069298E-010
   1.7500000000000016E-002    -1.3343290916623118E-009
   1.8600000000000005E-002    -1.5227887839586174E-009
   1.9700000000000023E-002    -9.0243967854064522E-010
   2.0800000000000013E-002     5.0612336544020309E-010
   2.1900000000000003E-002     2.3210080524194154E-009
   2.3000000000000020E-002     3.8847423056154184E-009
   2.4100000000000010E-002     4.4775778640371300E-009
   2.5200000000000000E-002     3.5875711290600520E-009
   2.6300000000000018E-002     1.1354145401654137E-009
   2.7400000000000008E-002    -2.4383302044128641E-009
   2.8500000000000025E-002    -6.2666116740217603E-009
   2.9600000000000015E-002    -9.3034850934259339E-009
   3.0700000000000005E-002    -1.0638110836680426E-008
   3.1800000000000023E-002    -9.7574153201662739E-009
   3.2900000000000013E-002    -6.6530425613109401E-009
   3.4000000000000002E-002    -1.7244262684457112E-009
   3.5100000000000020E-002     4.4826142797660395E-009
   3.6200000000000010E-002     1.1569349922524452E-008
   3.7300000000000028E-002     1.9420461683239409E-008
   3.8400000000000017E-002     2.8019030651194043E-008
   3.9500000000000007E-002     3.6903280431488383E-008
   4.0600000000000025E-002     4.4421021527796256E-008
   4.1700000000000015E-002     4.7101799793836108E-008
   4.2800000000000005E-002     3.9491176551109675E-008
   4.3900000000000022E-002     1.4624079724967487E-008
   4.5000000000000012E-002    -3.4987678532161226E-008
   4.6100000000000002E-002    -1.1626363516370475E-007
   4.7200000000000020E-002    -2.3487332612148748E-007
   4.8300000000000010E-002    -3.9533489371024189E-007
   4.9400000000000027E-002    -6.0193627859916887E-007
   5.0500000000000017E-002    -8.6019053924246691E-007
   5.1600000000000007E-002    -1.1783671425291686E-006
   5.2700000000000025E-002    -1.5687060113123152E-006
   5.3800000000000014E-002    -2.0481543288042303E-006
   5.4900000000000004E-002    -2.6387281195638934E-006
   5.6000000000000022E-002    -3.3677692954370286E-006
   5.7100000000000012E-002    -4.2683636820584070E-006
   5.8200000000000002E-002    -5.3800936257175636E-006
   5.9300000000000019E-002    -6.7501609919418115E-006
   6.0400000000000009E-002    -8.4348530435818247E-006
   6.1500000000000027E-002    -1.0501322321943007E-005
   6.2600000000000017E-002    -1.3029714864387643E-005
   6.3700000000000007E-002    -1.6115678590722382E-005
   6.4800000000000024E-002    -1.9873225028277375E-005
   6.5900000000000014E-002    -2.4437744286842644E-005
   6.7000000000000004E-002    -2.9968998205731623E-005
   6.8100000000000022E-002    -3.6653946153819561E-005
   6.9200000000000012E-002    -4.4709577196044847E-005
   7.0300000000000029E-002    -5.4386335250455886E-005
   7.1400000000000019E-002    -6.5972693846561015E-005
   7.2500000000000009E-002    -7.9801342508289963E-005
   7.3600000000000027E-002    -9.6256648248527199E-005
   7.4700000000000016E-002    -1.1578272824408486E-004
   7.5800000000000006E-002    -1.3889079855289310E-004
   7.6900000000000024E-002    -1.6616535140201449E-004
   7.8000000000000014E-002    -1.9826917559839785E-004
   7.9100000000000004E-002    -2.3594821686856449E-004
   8.0200000000000021E-002    -2.8003749321214855E-004
   8.1300000000000011E-002    -3.3146896748803556E-004
   8.2400000000000029E-002    -3.9128077332861722E-004
   8.3500000000000019E-002    -4.6062728506512940E-004
   8.4600000000000009E-002    -5.4078770335763693E-004
   8.5700000000000026E-002    -6.3317269086837769E-004
   8.6800000000000016E-002    -7.3932798113673925E-004
   8.7900000000000006E-002    -8.6093565914779902E-004
   8.9000000000000024E-002    -9.9981401581317186E-004
   9.0100000000000013E-002    -1.1579162674024701E-003
   9.1200000000000003E-002    -1.3373285764828324E-003
   9.2300000000000021E-002    -1.5402667922899127E-003
   9.3400000000000011E-002    -1.7690701643005013E-003
   9.4500000000000028E-002    -2.0261916797608137E-003
   9.5600000000000018E-002    -2.3141843266785145E-003
   9.6700000000000008E-002    -2.6356822345405817E-003
   9.7800000000000026E-002    -2.9933764599263668E-003
   9.8900000000000016E-002    -3.3899843692779541E-003
  0.10000000000000001         -3.8282156456261873E-003
  0.10110000000000002         -4.3107303790748119E-003
  0.10220000000000001         -4.8400922678411007E-003
  0.10330000000000003         -5.4187220521271229E-003
  0.10440000000000002         -6.0488400049507618E-003
  0.10550000000000001         -6.7324074916541576E-003
  0.10660000000000003         -7.4710673652589321E-003
  0.10770000000000002         -8.2660755142569542E-003
  0.10880000000000001         -9.1182356700301170E-003
  0.10990000000000003         -1.0027813725173473E-002
  0.11100000000000002         -1.0994465090334415E-002
  0.11210000000000001         -1.2017151340842247E-002
  0.11320000000000002         -1.3094072230160236E-002
  0.11430000000000001         -1.4222598634660244E-002
  0.11540000000000003         -1.5399209223687649E-002
  0.11650000000000002         -1.6619440168142319E-002
  0.11760000000000001         -1.7877828329801559E-002
  0.11870000000000003         -1.9167870283126831E-002
  0.11980000000000002         -2.0481988787651062E-002
  0.12090000000000001         -2.1811522543430328E-002
  0.12200000000000003         -2.3146724328398705E-002
  0.12310000000000001         -2.4476781487464905E-002
  0.12420000000000003         -2.5789860635995865E-002
  0.12530000000000002         -2.7073191478848457E-002
  0.12640000000000001         -2.8313141316175461E-002
  0.12750000000000003         -2.9495313763618469E-002
  0.12860000000000002         -3.0604664236307144E-002
  0.12970000000000001         -3.1625650823116302E-002
  0.13080000000000003         -3.2542407512664795E-002
  0.13190000000000002         -3.3338934183120728E-002
  0.13300000000000001         -3.3999301493167877E-002
  0.13410000000000000         -3.4507885575294495E-002
  0.13520000000000004         -3.4849584102630615E-002
  0.13630000000000003         -3.5010054707527161E-002
  0.13740000000000002         -3.4975990653038025E-002
  0.13850000000000001         -3.4735344350337982E-002
  0.13960000000000000         -3.4277569502592087E-002
  0.14070000000000005         -3.3593878149986267E-002
  0.14180000000000004         -3.2677445560693741E-002
  0.14290000000000003         -3.1523603945970535E-002
  0.14400000000000002         -3.0130039900541306E-002
  0.14510000000000001         -2.8496939688920975E-002
  0.14620000000000000         -2.6627130806446075E-002
  0.14730000000000004         -2.4526160210371017E-002
  0.14840000000000003         -2.2202324122190475E-002
  0.14950000000000002         -1.9666681066155434E-002
  0.15060000000000001         -1.6933016479015350E-002
  0.15170000000000000         -1.4017763547599316E-002
  0.15280000000000005         -1.0939881205558777E-002
  0.15390000000000004         -7.7206678688526154E-003
  0.15500000000000003         -4.3835327960550785E-003
  0.15610000000000002         -9.5373985823243856E-004
  0.15720000000000001          2.5418626610189676E-003
  0.15830000000000000          6.0751410201191902E-003
  0.15940000000000004          9.6170138567686081E-003
  0.16050000000000003          1.3137831352651119E-002
  0.16160000000000002          1.6607787460088730E-002
  0.16270000000000001          1.9997317343950272E-002
  0.16380000000000000          2.3277483880519867E-002
  0.16490000000000005          2.6420358568429947E-002
  0.16600000000000004          2.9399368911981583E-002
  0.16710000000000003          3.2189648598432541E-002
  0.16820000000000002          3.4768398851156235E-002
  0.16930000000000001          3.7115167826414108E-002
  0.17040000000000000          3.9212122559547424E-002
  0.17150000000000004          4.1044227778911591E-002
  0.17260000000000003          4.2599435895681381E-002
  0.17370000000000002          4.3868809938430786E-002
  0.17480000000000001          4.4846624135971069E-002
  0.17590000000000000          4.5530363917350769E-002
  0.17700000000000005          4.5920722186565399E-002
  0.17810000000000004          4.6021483838558197E-002
  0.17920000000000003          4.5839414000511169E-002
  0.18030000000000002          4.5384109020233154E-002
  0.18140000000000001          4.4667799025774002E-002
  0.18250000000000000          4.3705098330974579E-002
  0.18360000000000004          4.2512722313404083E-002
  0.18470000000000003          4.1109222918748856E-002
  0.18580000000000002          3.9514675736427307E-002
  0.18690000000000001          3.7750381976366043E-002
  0.18800000000000000          3.5838529467582703E-002
  0.18910000000000005          3.3801883459091187E-002
  0.19020000000000004          3.1663432717323303E-002
  0.19130000000000003          2.9446095228195190E-002
  0.19240000000000002          2.7172414585947990E-002
  0.19350000000000001          2.4864317849278450E-002
  0.19460000000000005          2.2542869672179222E-002
  0.19570000000000004          2.0228065550327301E-002
  0.19680000000000003          1.7938613891601562E-002
  0.19790000000000002          1.5691783279180527E-002
  0.19900000000000001          1.3503273949027061E-002
  0.20010000000000000          1.1387128382921219E-002
  0.20120000000000005          9.3556754291057587E-003
  0.20230000000000004          7.4194925837218761E-003
  0.20340000000000003          5.5874017998576164E-003
  0.20450000000000002          3.8664820604026318E-003
  0.20560000000000000          2.2621108219027519E-003
  0.20670000000000005          7.7803840395063162E-004
  0.20780000000000004         -5.8351870393380523E-004
  0.20890000000000003         -1.8217673059552908E-003
