 -0.12000000000000000          0.0000000000000000
 -0.11889999999999999          0.0000000000000000
 -0.11780000000000000          0.0000000000000000
 -0.11670000000000000          0.0000000000000000
 -0.11559999999999999          0.0000000000000000
 -0.11449999999999999          0.0000000000000000
 -0.11340000000000000          0.0000000000000000
 -0.11230000000000000          0.0000000000000000
 -0.11119999999999999          0.0000000000000000
 -0.11009999999999999          0.0000000000000000
 -0.10900000000000000          0.0000000000000000
 -0.10790000000000000         -1.0596768232888767E-029
 -0.10679999999999999          7.0512225364809470E-029
 -0.10569999999999999         -1.5500935750178110E-027
 -0.10460000000000000         -7.2408410043429374E-027
 -0.10349999999999999          1.6363435742380734E-026
 -0.10239999999999999          6.2000763201902482E-026
 -0.10130000000000000         -4.6571606552602894E-025
 -0.10020000000000000         -1.8360076898010927E-024
  -9.9099999999999994E-002     3.1535866423131570E-024
  -9.7999999999999990E-002     2.7033316588837809E-023
  -9.6899999999999986E-002     1.9830227663264751E-023
  -9.5799999999999996E-002    -2.0448107700444539E-022
  -9.4699999999999993E-002    -5.6661402429871608E-022
  -9.3599999999999989E-002     3.9249737736125440E-022
  -9.2499999999999999E-002     4.7051277244109311E-021
  -9.1399999999999995E-002     7.0423160438631405E-021
  -9.0299999999999991E-002    -1.3881213511697860E-020
  -8.9200000000000002E-002    -6.7972267904489400E-020
  -8.8099999999999984E-002    -6.4554208979403971E-020
  -8.6999999999999994E-002     2.1107599375397783E-019
  -8.5899999999999990E-002     7.3573176332980427E-019
  -8.4799999999999986E-002     5.2007450730138392E-019
  -8.3699999999999997E-002    -2.1622778317641349E-018
  -8.2599999999999993E-002    -6.4843151439174869E-018
  -8.1499999999999989E-002    -4.1984867207302879E-018
  -8.0399999999999999E-002     1.6731483166144822E-017
  -7.9299999999999995E-002     4.8448805584010735E-017
  -7.8199999999999992E-002     3.4401303475557548E-017
  -7.7100000000000002E-002    -1.0170737526244171E-016
  -7.5999999999999984E-002    -3.1206345491095570E-016
  -7.4899999999999994E-002    -2.6604322844434351E-016
  -7.3799999999999991E-002     4.8362235508078895E-016
  -7.2699999999999987E-002     1.7388875958246276E-015
  -7.1599999999999997E-002     1.8249799187044363E-015
  -7.0499999999999993E-002    -1.6742477587625734E-015
  -6.9399999999999989E-002    -8.3427773221148201E-015
  -6.8300000000000000E-002    -1.0807055357759440E-014
  -6.7199999999999996E-002     2.8158483777649367E-015
  -6.6099999999999992E-002     3.4013749797409329E-014
  -6.5000000000000002E-002     5.4800161939727934E-014
  -6.3899999999999985E-002     1.2639392604643727E-014
  -6.2799999999999995E-002    -1.1448066344725560E-013
  -6.1699999999999991E-002    -2.3718296749374035E-013
  -6.0599999999999994E-002    -1.4903275011649009E-013
  -5.9499999999999990E-002     2.9538361773912003E-013
  -5.8399999999999994E-002     8.7056815749331218E-013
  -5.7299999999999990E-002     8.6404369986983753E-013
  -5.6199999999999986E-002    -4.3295109251190178E-013
  -5.5099999999999996E-002    -2.6633634533923534E-012
  -5.3999999999999992E-002    -3.7032096139588688E-012
  -5.2899999999999989E-002    -7.4302949860591272E-013
  -5.1799999999999985E-002     6.4926714178625833E-012
  -5.0699999999999995E-002     1.2703025263627321E-011
  -4.9599999999999991E-002     8.5365074384280426E-012
  -4.8499999999999988E-002    -1.0915004143574603E-011
  -4.7399999999999998E-002    -3.5391217734215275E-011
  -4.6299999999999994E-002    -3.8571756899585807E-011
  -4.5199999999999990E-002     2.9888786758081043E-012
  -4.4099999999999986E-002     7.7961595512654469E-011
  -4.2999999999999997E-002     1.2449026531857754E-010
  -4.1899999999999993E-002     6.3405621031353832E-011
  -4.0799999999999989E-002    -1.2095771606546180E-010
  -3.9699999999999985E-002    -3.1261562782880503E-010
  -3.8599999999999995E-002    -2.9891597530529168E-010
  -3.7499999999999992E-002     5.6734512920986191E-011
  -3.6399999999999988E-002     6.0597965534370246E-010
  -3.5299999999999984E-002     8.8372914541778869E-010
  -3.4199999999999994E-002     4.0793923794524289E-010
  -3.3099999999999991E-002    -8.0692591497566468E-010
  -3.1999999999999987E-002    -1.9522126137871965E-009
  -3.0899999999999997E-002    -1.7982854094711342E-009
  -2.9799999999999993E-002     2.6448909729026582E-010
  -2.8699999999999989E-002     3.2385039094862123E-009
  -2.7599999999999986E-002     4.6517594221029412E-009
  -2.6499999999999996E-002     2.2759525375448675E-009
  -2.5399999999999992E-002    -3.5104146256514923E-009
  -2.4299999999999988E-002    -8.7943714532912054E-009
  -2.3199999999999985E-002    -8.2723063954404097E-009
  -2.2099999999999995E-002     2.2712583203077230E-010
  -2.0999999999999991E-002     1.2235193302956304E-008
  -1.9899999999999987E-002     1.8044067573441680E-008
  -1.8799999999999983E-002     9.7450092439999025E-009
  -1.7699999999999994E-002    -1.0579594977855322E-008
  -1.6599999999999990E-002    -2.8919103556290793E-008
  -1.5499999999999986E-002    -2.7911484679066234E-008
  -1.4399999999999996E-002    -1.7195161960970040E-009
  -1.3299999999999992E-002     3.4550950545053638E-008
  -1.2199999999999989E-002     5.1635282716233633E-008
  -1.1099999999999985E-002     2.8250653372197121E-008
  -9.9999999999999950E-003    -2.6945855324811419E-008
  -8.8999999999999913E-003    -7.3980260140160681E-008
  -7.7999999999999875E-003    -6.8441110556705098E-008
  -6.6999999999999837E-003    -4.6148407317758711E-010
  -5.5999999999999939E-003     8.6357530904024316E-008
  -4.4999999999999901E-003     1.1920167253265390E-007
  -3.3999999999999864E-003     5.3651458387093953E-008
  -2.2999999999999826E-003    -7.8373297185407864E-008
  -1.1999999999999927E-003    -1.7638191707192163E-007
  -9.9999999999988987E-005    -1.4283281757343502E-007
   1.0000000000000148E-003     2.8858874401294088E-008
   2.1000000000000185E-003     2.2414255340663658E-007
   3.2000000000000084E-003     2.7667456947710889E-007
   4.3000000000000121E-003     1.0106711556545633E-007
   5.4000000000000159E-003    -2.1179914710955927E-007
   6.5000000000000058E-003    -4.2914666664728429E-007
   7.6000000000000234E-003    -3.4139833360313787E-007
   8.7000000000000133E-003     5.3737526428676574E-008
   9.8000000000000032E-003     5.0123861683459836E-007
   1.0900000000000021E-002     6.4478700778636266E-007
   1.2000000000000011E-002     3.0128796879580477E-007
   1.3100000000000001E-002    -3.5177603763258958E-007
   1.4200000000000018E-002    -8.5012811723572668E-007
   1.5300000000000008E-002    -7.6753104849558440E-007
   1.6400000000000026E-002    -7.0564247778293065E-008
   1.7500000000000016E-002     7.8420873705908889E-007
   1.8600000000000005E-002     1.1377962891856441E-006
   1.9700000000000023E-002     6.3281970597017789E-007
   2.0800000000000013E-002    -4.4357850015330769E-007
   2.1900000000000003E-002    -1.2896882708446356E-006
   2.3000000000000020E-002    -1.1676776239255560E-006
   2.4100000000000010E-002    -2.9783608468392231E-008
   2.5200000000000000E-002     1.3204132756072795E-006
   2.6300000000000018E-002     1.7509803456050577E-006
   2.7400000000000008E-002     6.9884862341496046E-007
   2.8500000000000025E-002    -1.2387133665470174E-006
   2.9600000000000015E-002    -2.5725448722369038E-006
   3.0700000000000005E-002    -1.9945009626098908E-006
   3.1800000000000023E-002     4.8001322738855379E-007
   3.2900000000000013E-002     3.2353880214941455E-006
   3.4000000000000002E-002     4.0473619264957961E-006
   3.5100000000000020E-002     1.7800484783947468E-006
   3.6200000000000010E-002    -2.4593314265075605E-006
   3.7300000000000028E-002    -5.7499673857819289E-006
   3.8400000000000017E-002    -5.3241988098307047E-006
   3.9500000000000007E-002    -7.8021037097641965E-007
   4.0600000000000025E-002     5.1728843573073391E-006
   4.1700000000000015E-002     8.2754368122550659E-006
   4.2800000000000005E-002     5.7385077525395900E-006
   4.3900000000000022E-002    -1.3957661622043815E-006
   4.5000000000000012E-002    -8.4773619164479896E-006
   4.6100000000000002E-002    -1.0249648767057806E-005
   4.7200000000000020E-002    -4.7107696445891634E-006
   4.8300000000000010E-002     4.9843206397781614E-006
   4.9400000000000027E-002     1.2246731785126030E-005
   5.0500000000000017E-002     1.1512691344250925E-005
   5.1600000000000007E-002     2.4044038582360372E-006
   5.2700000000000025E-002    -9.5042269094847143E-006
   5.3800000000000014E-002    -1.6159814549610019E-005
   5.4900000000000004E-002    -1.2526329555839766E-005
   5.6000000000000022E-002    -2.7296803750687104E-007
   5.7100000000000012E-002     1.3064414815744385E-005
   5.8200000000000002E-002     1.9004668502020650E-005
   5.9300000000000019E-002     1.3742530427407473E-005
   6.0400000000000009E-002     5.5829144685048959E-007
   6.1500000000000027E-002    -1.2576508197525982E-005
   6.2600000000000017E-002    -1.8334418200538494E-005
   6.3700000000000007E-002    -1.4448041838477366E-005
   6.4800000000000024E-002    -4.2880387809418608E-006
   6.5900000000000014E-002     6.2472263380186632E-006
   6.7000000000000004E-002     1.2677015547524206E-005
   6.8100000000000022E-002     1.3688009858014993E-005
   6.9200000000000012E-002     1.0033038051915355E-005
   7.0300000000000029E-002     2.6562674975139089E-006
   7.1400000000000019E-002    -7.3706773946469184E-006
   7.2500000000000009E-002    -1.6866148143890314E-005
   7.3600000000000027E-002    -1.9343242456670851E-005
   7.4700000000000016E-002    -7.9544679465470836E-006
   7.5800000000000006E-002     1.7507391021354124E-005
   7.6900000000000024E-002     4.4738098949892446E-005
   7.8000000000000014E-002     5.1375071052461863E-005
   7.9100000000000004E-002     1.8536145944381133E-005
   8.0200000000000021E-002    -5.1000632083741948E-005
   8.1300000000000011E-002    -1.2369279284030199E-004
   8.2400000000000029E-002    -1.4699481835123152E-004
   8.3500000000000019E-002    -8.1051002780441195E-005
   8.4600000000000009E-002     6.7037282860837877E-005
   8.5700000000000026E-002     2.3156960378400981E-004
   8.6800000000000016E-002     3.1491665868088603E-004
   8.7900000000000006E-002     2.4403474526479840E-004
   8.9000000000000024E-002     2.4359791495953687E-005
   9.0100000000000013E-002    -2.4710848811082542E-004
   9.1200000000000003E-002    -4.2693261639215052E-004
   9.2300000000000021E-002    -4.0854990947991610E-004
   9.3400000000000011E-002    -1.9368628272786736E-004
   9.4500000000000028E-002     9.8027237982023507E-005
   9.5600000000000018E-002     2.9597536195069551E-004
   9.6700000000000008E-002     2.8624694095924497E-004
   9.7800000000000026E-002     9.1911577328573912E-005
   9.8900000000000016E-002    -1.3151677558198571E-004
  0.10000000000000001         -1.9109505228698254E-004
  0.10110000000000002          1.3713354746869300E-005
  0.10220000000000001          4.1127245640382171E-004
  0.10330000000000003          7.8641762956976891E-004
  0.10440000000000002          9.0640067355707288E-004
  0.10550000000000001          6.6497386433184147E-004
  0.10660000000000003          1.4631843077950180E-004
  0.10770000000000002         -4.4147783773951232E-004
  0.10880000000000001         -9.2596880858764052E-004
  0.10990000000000003         -1.3154062908142805E-003
  0.11100000000000002         -1.8204897642135620E-003
  0.11210000000000001         -2.7196682058274746E-003
  0.11320000000000002         -4.1429703123867512E-003
  0.11430000000000001         -5.9189940802752972E-003
  0.11540000000000003         -7.6080323196947575E-003
  0.11650000000000002         -8.7359761819243431E-003
  0.11760000000000001         -9.1113802045583725E-003
  0.11870000000000003         -9.0360362082719803E-003
  0.11980000000000002         -9.2624984681606293E-003
  0.12090000000000001         -1.0690728202462196E-002
  0.12200000000000003         -1.3955506496131420E-002
  0.12310000000000001         -1.9133979454636574E-002
  0.12420000000000003         -2.5750221684575081E-002
  0.12530000000000002         -3.3090967684984207E-002
  0.12640000000000001         -4.0668852627277374E-002
  0.12750000000000003         -4.8576846718788147E-002
  0.12860000000000002         -5.7538744062185287E-002
  0.12970000000000001         -6.8625375628471375E-002
  0.13080000000000003         -8.2805253565311432E-002
  0.13190000000000002        -0.10059192776679993
  0.13300000000000001        -0.12199897319078445
  0.13410000000000000        -0.14683826267719269
  0.13520000000000004        -0.17518895864486694
  0.13630000000000003        -0.20775593817234039
  0.13740000000000002        -0.24589976668357849
  0.13850000000000001        -0.29127588868141174
  0.13960000000000000        -0.34530892968177795
  0.14070000000000005        -0.40874624252319336
  0.14180000000000004        -0.48165306448936462
  0.14290000000000003        -0.56383323669433594
  0.14400000000000002        -0.65551799535751343
  0.14510000000000001        -0.75793093442916870
  0.14620000000000000        -0.87340611219406128
  0.14730000000000004         -1.0049387216567993
  0.14840000000000003         -1.1553338766098022
  0.14950000000000002         -1.3264600038528442
  0.15060000000000001         -1.5189734697341919
  0.15170000000000000         -1.7326146364212036
  0.15280000000000005         -1.9669766426086426
  0.15390000000000004         -2.2223043441772461
  0.15500000000000003         -2.4997608661651611
  0.15610000000000002         -2.8010644912719727
  0.15720000000000001         -3.1276717185974121
  0.15830000000000000         -3.4799773693084717
  0.15940000000000004         -3.8571929931640625
  0.16050000000000003         -4.2575883865356445
  0.16160000000000002         -4.6792039871215820
  0.16270000000000001         -5.1202216148376465
  0.16380000000000000         -5.5791029930114746
  0.16490000000000005         -6.0535140037536621
  0.16600000000000004         -6.5396156311035156
  0.16710000000000003         -7.0311989784240723
  0.16820000000000002         -7.5200915336608887
  0.16930000000000001         -7.9970507621765137
  0.17040000000000000         -8.4529914855957031
  0.17150000000000004         -8.8798799514770508
  0.17260000000000003         -9.2703838348388672
  0.17370000000000002         -9.6167469024658203
  0.17480000000000001         -9.9085321426391602
  0.17590000000000000         -10.132669448852539
  0.17700000000000005         -10.273728370666504
  0.17810000000000004         -10.316020965576172
  0.17920000000000003         -10.244946479797363
  0.18030000000000002         -10.048013687133789
  0.18140000000000001         -9.7134504318237305
  0.18250000000000000         -9.2311325073242188
  0.18360000000000004         -8.5914878845214844
  0.18470000000000003         -7.7836952209472656
  0.18580000000000002         -6.7975692749023438
  0.18690000000000001         -5.6243176460266113
  0.18800000000000000         -4.2578659057617188
  0.18910000000000005         -2.6959700584411621
  0.19020000000000004        -0.94194060564041138
  0.19130000000000003         0.99650359153747559
  0.19240000000000002          3.1111180782318115
  0.19350000000000001          5.3921918869018555
  0.19460000000000005          7.8275027275085449
  0.19570000000000004          10.397635459899902
  0.19680000000000003          13.080257415771484
  0.19790000000000002          15.847094535827637
  0.19900000000000001          18.666309356689453
  0.20010000000000000          21.503271102905273
  0.20120000000000005          24.322404861450195
  0.20230000000000004          27.085893630981445
  0.20340000000000003          29.751550674438477
  0.20450000000000002          32.276832580566406
  0.20560000000000000          34.616901397705078
  0.20670000000000005          36.728240966796875
  0.20780000000000004          38.569114685058594
  0.20890000000000003          40.098041534423828
