 -0.12000000000000000          0.0000000000000000
 -0.11889999999999999          0.0000000000000000
 -0.11780000000000000          0.0000000000000000
 -0.11670000000000000          2.3117417702334109E-010
 -0.11559999999999999          7.7702194678508363E-010
 -0.11449999999999999         -1.6359066878912643E-010
 -0.11340000000000000         -5.6365498934951574E-009
 -0.11230000000000000         -1.2840432717098338E-008
 -0.11119999999999999         -7.1585328775825019E-009
 -0.11009999999999999          2.5509475420903982E-008
 -0.10900000000000000          6.8357074667346751E-008
 -0.10790000000000000          6.2652446786159999E-008
 -0.10679999999999999         -4.2087769713816670E-008
 -0.10569999999999999         -2.0027971459057881E-007
 -0.10460000000000000         -2.4954081823125307E-007
 -0.10349999999999999         -4.1034304842924030E-008
 -0.10239999999999999          3.5518181107363489E-007
 -0.10130000000000000          5.9918113493040437E-007
 -0.10020000000000000          3.4192626685580763E-007
  -9.9099999999999994E-002    -3.6486125054580043E-007
  -9.7999999999999990E-002    -9.4241056558530545E-007
  -9.6899999999999986E-002    -7.2572964882056112E-007
  -9.5799999999999996E-002     3.0886761237525207E-007
  -9.4699999999999993E-002     1.2670318483287701E-006
  -9.3599999999999989E-002     1.0073472367366776E-006
  -9.2499999999999999E-002    -6.5207524357902003E-007
  -9.1399999999999995E-002    -2.3578731997986324E-006
  -9.0299999999999991E-002    -2.1333039512683172E-006
  -8.9200000000000002E-002     7.2032958087220322E-007
  -8.8099999999999984E-002     4.4428984438127372E-006
  -8.6999999999999994E-002     5.7869315241987351E-006
  -8.5899999999999990E-002     2.7261571631242987E-006
  -8.4799999999999986E-002    -3.3617857297940645E-006
  -8.3699999999999997E-002    -8.2502428995212540E-006
  -8.2599999999999993E-002    -8.1080852396553382E-006
  -8.1499999999999989E-002    -2.8013794235448586E-006
  -8.0399999999999999E-002     3.7810220874234801E-006
  -7.9299999999999995E-002     6.9414222707564477E-006
  -7.8199999999999992E-002     5.2160239647491835E-006
  -7.7100000000000002E-002     1.5467542198166484E-006
  -7.5999999999999984E-002     3.4334823340032017E-007
  -7.4899999999999994E-002     3.0177782264217967E-006
  -7.3799999999999991E-002     6.1800278672308195E-006
  -7.2699999999999987E-002     4.3917943912674673E-006
  -7.1599999999999997E-002    -4.8511019485886209E-006
  -7.0499999999999993E-002    -1.8467739209881984E-005
  -6.9399999999999989E-002    -3.0063632948440500E-005
  -6.8300000000000000E-002    -3.5252585803391412E-005
  -6.7199999999999996E-002    -3.5321478208061308E-005
  -6.6099999999999992E-002    -3.6005214496981353E-005
  -6.5000000000000002E-002    -4.2591364035615698E-005
  -6.3899999999999985E-002    -5.5871187214506790E-005
  -6.2799999999999995E-002    -7.2542083216831088E-005
  -6.1699999999999991E-002    -8.9448774815537035E-005
  -6.0599999999999994E-002    -1.0751165245892480E-004
  -5.9499999999999990E-002    -1.3162542018108070E-004
  -5.8399999999999994E-002    -1.6673194477334619E-004
  -5.7299999999999990E-002    -2.1392217604443431E-004
  -5.6199999999999986E-002    -2.7036358369514346E-004
  -5.5099999999999996E-002    -3.3318396890535951E-004
  -5.3999999999999992E-002    -4.0367283509112895E-004
  -5.2899999999999989E-002    -4.8786203842610121E-004
  -5.1799999999999985E-002    -5.9299322310835123E-004
  -5.0699999999999995E-002    -7.2331883711740375E-004
  -4.9599999999999991E-002    -8.7937392527237535E-004
  -4.8499999999999988E-002    -1.0615828214213252E-003
  -4.7399999999999998E-002    -1.2748431181535125E-003
  -4.6299999999999994E-002    -1.5295601915568113E-003
  -4.5199999999999990E-002    -1.8377688247710466E-003
  -4.4099999999999986E-002    -2.2077069152146578E-003
  -4.2999999999999997E-002    -2.6421023067086935E-003
  -4.1899999999999993E-002    -3.1424423214048147E-003
  -4.0799999999999989E-002    -3.7160045467317104E-003
  -3.9699999999999985E-002    -4.3794158846139908E-003
  -3.8599999999999995E-002    -5.1550650969147682E-003
  -3.7499999999999992E-002    -6.0630030930042267E-003
  -3.6399999999999988E-002    -7.1154832839965820E-003
  -3.5299999999999984E-002    -8.3195725455880165E-003
  -3.4199999999999994E-002    -9.6862334758043289E-003
  -3.3099999999999991E-002    -1.1237964034080505E-002
  -3.1999999999999987E-002    -1.3007611036300659E-002
  -3.0899999999999997E-002    -1.5028506517410278E-002
  -2.9799999999999993E-002    -1.7324285581707954E-002
  -2.8699999999999989E-002    -1.9907785579562187E-002
  -2.7599999999999986E-002    -2.2790767252445221E-002
  -2.6499999999999996E-002    -2.5996064767241478E-002
  -2.5399999999999992E-002    -2.9560713097453117E-002
  -2.4299999999999988E-002    -3.3526234328746796E-002
  -2.3199999999999985E-002    -3.7923995405435562E-002
  -2.2099999999999995E-002    -4.2768701910972595E-002
  -2.0999999999999991E-002    -4.8066049814224243E-002
  -1.9899999999999987E-002    -5.3827393800020218E-002
  -1.8799999999999983E-002    -6.0077104717493057E-002
  -1.7699999999999994E-002    -6.6844508051872253E-002
  -1.6599999999999990E-002    -7.4146859347820282E-002
  -1.5499999999999986E-002    -8.1978343427181244E-002
  -1.4399999999999996E-002    -9.0315163135528564E-002
  -1.3299999999999992E-002    -9.9131278693675995E-002
  -1.2199999999999989E-002   -0.10840883105993271
  -1.1099999999999985E-002   -0.11813222616910934
  -9.9999999999999950E-003   -0.12827028334140778
  -8.8999999999999913E-003   -0.13876263797283173
  -7.7999999999999875E-003   -0.14952294528484344
  -6.6999999999999837E-003   -0.16045475006103516
  -5.5999999999999939E-003   -0.17146416008472443
  -4.4999999999999901E-003   -0.18245610594749451
  -3.3999999999999864E-003   -0.19331680238246918
  -2.2999999999999826E-003   -0.20389965176582336
  -1.1999999999999927E-003   -0.21402852237224579
  -9.9999999999988987E-005   -0.22351589798927307
   1.0000000000000148E-003   -0.23217789828777313
   2.1000000000000185E-003   -0.23983268439769745
   3.2000000000000084E-003   -0.24628424644470215
   4.3000000000000121E-003   -0.25130885839462280
   5.4000000000000159E-003   -0.25466045737266541
   6.5000000000000058E-003   -0.25609108805656433
   7.6000000000000234E-003   -0.25536912679672241
   8.7000000000000133E-003   -0.25228071212768555
   9.8000000000000032E-003   -0.24661470949649811
   1.0900000000000021E-002   -0.23815011978149414
   1.2000000000000011E-002   -0.22666241228580475
   1.3100000000000001E-002   -0.21194650232791901
   1.4200000000000018E-002   -0.19383768737316132
   1.5300000000000008E-002   -0.17221400141716003
   1.6400000000000026E-002   -0.14698253571987152
   1.7500000000000016E-002   -0.11806733161211014
   1.8600000000000005E-002    -8.5415847599506378E-002
   1.9700000000000023E-002    -4.9021117389202118E-002
   2.0800000000000013E-002    -8.9410990476608276E-003
   2.1900000000000003E-002     3.4699924290180206E-002
   2.3000000000000020E-002     8.1726856529712677E-002
   2.4100000000000010E-002    0.13192796707153320
   2.5200000000000000E-002    0.18505163490772247
   2.6300000000000018E-002    0.24078837037086487
   2.7400000000000008E-002    0.29875597357749939
   2.8500000000000025E-002    0.35850229859352112
   2.9600000000000015E-002    0.41952374577522278
   3.0700000000000005E-002    0.48128384351730347
   3.1800000000000023E-002    0.54321563243865967
   3.2900000000000013E-002    0.60471040010452271
   3.4000000000000002E-002    0.66510891914367676
   3.5100000000000020E-002    0.72370886802673340
   3.6200000000000010E-002    0.77978825569152832
   3.7300000000000028E-002    0.83262890577316284
   3.8400000000000017E-002    0.88152521848678589
   3.9500000000000007E-002    0.92577815055847168
   4.0600000000000025E-002    0.96468991041183472
   4.1700000000000015E-002    0.99757421016693115
   4.2800000000000005E-002     1.0237804651260376
   4.3900000000000022E-002     1.0427168607711792
   4.5000000000000012E-002     1.0538623332977295
   4.6100000000000002E-002     1.0567646026611328
   4.7200000000000020E-002     1.0510343313217163
   4.8300000000000010E-002     1.0363515615463257
   4.9400000000000027E-002     1.0124835968017578
   5.0500000000000017E-002    0.97930461168289185
   5.1600000000000007E-002    0.93680566549301147
   5.2700000000000025E-002    0.88508975505828857
   5.3800000000000014E-002    0.82436203956604004
   5.4900000000000004E-002    0.75492584705352783
   5.6000000000000022E-002    0.67719084024429321
   5.7100000000000012E-002    0.59168130159378052
   5.8200000000000002E-002    0.49903684854507446
   5.9300000000000019E-002    0.40000420808792114
   6.0400000000000009E-002    0.29541984200477600
   6.1500000000000027E-002    0.18619519472122192
   6.2600000000000017E-002     7.3312647640705109E-002
   6.3700000000000007E-002    -4.2178396135568619E-002
   6.4800000000000024E-002   -0.15917162597179413
   6.5900000000000014E-002   -0.27651372551918030
   6.7000000000000004E-002   -0.39302551746368408
   6.8100000000000022E-002   -0.50752621889114380
   6.9200000000000012E-002   -0.61884742975234985
   7.0300000000000029E-002   -0.72584438323974609
   7.1400000000000019E-002   -0.82740545272827148
   7.2500000000000009E-002   -0.92246407270431519
   7.3600000000000027E-002    -1.0100191831588745
   7.4700000000000016E-002    -1.0891568660736084
   7.5800000000000006E-002    -1.1590671539306641
   7.6900000000000024E-002    -1.2190504074096680
   7.8000000000000014E-002    -1.2685194015502930
   7.9100000000000004E-002    -1.3070027828216553
   8.0200000000000021E-002    -1.3341554403305054
   8.1300000000000011E-002    -1.3497735261917114
   8.2400000000000029E-002    -1.3538039922714233
   8.3500000000000019E-002    -1.3463416099548340
   8.4600000000000009E-002    -1.3276156187057495
   8.5700000000000026E-002    -1.2979757785797119
   8.6800000000000016E-002    -1.2578890323638916
   8.7900000000000006E-002    -1.2079468965530396
   8.9000000000000024E-002    -1.1488656997680664
   9.0100000000000013E-002    -1.0814709663391113
   9.1200000000000003E-002    -1.0066705942153931
   9.2300000000000021E-002   -0.92542749643325806
   9.3400000000000011E-002   -0.83874660730361938
   9.4500000000000028E-002   -0.74767774343490601
   9.5600000000000018E-002   -0.65331405401229858
   9.6700000000000008E-002   -0.55677163600921631
   9.7800000000000026E-002   -0.45915421843528748
   9.8900000000000016E-002   -0.36152416467666626
  0.10000000000000001        -0.26488929986953735
  0.10110000000000002        -0.17020836472511292
  0.10220000000000001         -7.8400202095508575E-002
  0.10330000000000003          9.6715912222862244E-003
  0.10440000000000002          9.3228675425052643E-002
  0.10550000000000001         0.17160537838935852
  0.10660000000000003         0.24425354599952698
  0.10770000000000002         0.31072509288787842
  0.10880000000000001         0.37065184116363525
  0.10990000000000003         0.42374420166015625
  0.11100000000000002         0.46981227397918701
  0.11210000000000001         0.50878667831420898
  0.11320000000000002         0.54071611166000366
  0.11430000000000001         0.56573867797851562
  0.11540000000000003         0.58405137062072754
  0.11650000000000002         0.59589934349060059
  0.11760000000000001         0.60158765316009521
  0.11870000000000003         0.60149723291397095
  0.11980000000000002         0.59607875347137451
  0.12090000000000001         0.58582240343093872
  0.12200000000000003         0.57122701406478882
  0.12310000000000001         0.55278706550598145
  0.12420000000000003         0.53100049495697021
  0.12530000000000002         0.50638127326965332
  0.12640000000000001         0.47945535182952881
  0.12750000000000003         0.45073789358139038
  0.12860000000000002         0.42070916295051575
  0.12970000000000001         0.38980710506439209
  0.13080000000000003         0.35843729972839355
  0.13190000000000002         0.32698407769203186
  0.13300000000000001         0.29580780863761902
  0.13410000000000000         0.26523038744926453
  0.13520000000000004         0.23552362620830536
  0.13630000000000003         0.20691096782684326
  0.13740000000000002         0.17957988381385803
  0.13850000000000001         0.15369166433811188
  0.13960000000000000         0.12937892973423004
  0.14070000000000005         0.10673536360263824
  0.14180000000000004          8.5812397301197052E-002
  0.14290000000000003          6.6628418862819672E-002
  0.14400000000000002          4.9182604998350143E-002
  0.14510000000000001          3.3461760729551315E-002
  0.14620000000000000          1.9435258582234383E-002
  0.14730000000000004          7.0469239726662636E-003
  0.14840000000000003         -3.7837731651961803E-003
  0.14950000000000002         -1.3149295933544636E-002
  0.15060000000000001         -2.1140357479453087E-002
  0.15170000000000000         -2.7842983603477478E-002
  0.15280000000000005         -3.3347275108098984E-002
  0.15390000000000004         -3.7756066769361496E-002
  0.15500000000000003         -4.1182383894920349E-002
  0.15610000000000002         -4.3736655265092850E-002
  0.15720000000000001         -4.5515593141317368E-002
  0.15830000000000000         -4.6603336930274963E-002
  0.15940000000000004         -4.7082051634788513E-002
  0.16050000000000003         -4.7039475291967392E-002
  0.16160000000000002         -4.6564374119043350E-002
  0.16270000000000001         -4.5735344290733337E-002
  0.16380000000000000         -4.4614683836698532E-002
  0.16490000000000005         -4.3253231793642044E-002
  0.16600000000000004         -4.1701003909111023E-002
  0.16710000000000003         -4.0011283010244370E-002
  0.16820000000000002         -3.8233738392591476E-002
  0.16930000000000001         -3.6404971033334732E-002
  0.17040000000000000         -3.4547697752714157E-002
  0.17150000000000004         -3.2680641859769821E-002
  0.17260000000000003         -3.0828170478343964E-002
  0.17370000000000002         -2.9018552973866463E-002
  0.17480000000000001         -2.7272630482912064E-002
  0.17590000000000000         -2.5595795363187790E-002
  0.17700000000000005         -2.3983480408787727E-002
  0.17810000000000004         -2.2435471415519714E-002
  0.17920000000000003         -2.0963812246918678E-002
  0.18030000000000002         -1.9584940746426582E-002
  0.18140000000000001         -1.8303627148270607E-002
  0.18250000000000000         -1.7106084153056145E-002
  0.18360000000000004         -1.5971589833498001E-002
  0.18470000000000003         -1.4892251230776310E-002
  0.18580000000000002         -1.3880458660423756E-002
  0.18690000000000001         -1.2954818084836006E-002
  0.18800000000000000         -1.2117776088416576E-002
  0.18910000000000005         -1.1348200030624866E-002
  0.19020000000000004         -1.0617827065289021E-002
  0.19130000000000003         -9.9161630496382713E-003
  0.19240000000000002         -9.2586642131209373E-003
  0.19350000000000001         -8.6688688024878502E-003
  0.19460000000000005         -8.1514883786439896E-003
  0.19570000000000004         -7.6835169456899166E-003
  0.19680000000000003         -7.2333207353949547E-003
  0.19790000000000002         -6.7892139777541161E-003
  0.19900000000000001         -6.3689337112009525E-003
  0.20010000000000000         -6.0001248493790627E-003
  0.20120000000000005         -5.6909145787358284E-003
  0.20230000000000004         -5.4198820143938065E-003
  0.20340000000000003         -5.1555205136537552E-003
  0.20450000000000002         -4.8857540823519230E-003
  0.20560000000000000         -4.6279616653919220E-003
  0.20670000000000005         -4.4097239151597023E-003
  0.20780000000000004         -4.2396252974867821E-003
  0.20890000000000003         -4.0973201394081116E-003
