 -0.12000000000000000          0.0000000000000000
 -0.11889999999999999          0.0000000000000000
 -0.11780000000000000          0.0000000000000000
 -0.11670000000000000          0.0000000000000000
 -0.11559999999999999          0.0000000000000000
 -0.11449999999999999          2.6033480602666377E-019
 -0.11340000000000000         -8.1491569541797423E-019
 -0.11230000000000000         -4.2942200553338063E-018
 -0.11119999999999999         -2.9424623846101154E-019
 -0.11009999999999999          1.6527346571495311E-017
 -0.10900000000000000          7.7057019122724608E-018
 -0.10790000000000000         -2.5957827594420466E-017
 -0.10679999999999999         -3.8251991354391952E-017
 -0.10569999999999999          7.4032158175370788E-019
 -0.10460000000000000          8.2471369526859853E-017
 -0.10349999999999999          1.6420241902292965E-016
 -0.10239999999999999          1.4336052484613735E-016
 -0.10130000000000000          8.8327629592722977E-017
 -0.10020000000000000          3.3294737648031060E-017
  -9.9099999999999994E-002    -5.5929142138393123E-017
  -9.7999999999999990E-002     1.4547036480373960E-016
  -9.6899999999999986E-002     4.8363379002557688E-016
  -9.5799999999999996E-002     7.5341526603372923E-016
  -9.4699999999999993E-002     3.1658127718870393E-017
  -9.3599999999999989E-002    -1.1174863321478622E-015
  -9.2499999999999999E-002    -1.3434742989588359E-015
  -9.1399999999999995E-002     6.1876085022193701E-016
  -9.0299999999999991E-002     2.3074683084270886E-015
  -8.9200000000000002E-002     1.3292789796749195E-015
  -8.8099999999999984E-002    -1.1020273455857607E-015
  -8.6999999999999994E-002    -3.3837481817569235E-015
  -8.5899999999999990E-002    -4.7935987353196850E-015
  -8.4799999999999986E-002    -4.1519903360158657E-015
  -8.3699999999999997E-002    -1.0486308121073233E-015
  -8.2599999999999993E-002     6.5679387892725229E-015
  -8.1499999999999989E-002     1.9928594771579863E-014
  -8.0399999999999999E-002     2.4399595503223591E-014
  -7.9299999999999995E-002     7.1251276498882424E-015
  -7.8199999999999992E-002    -2.9022764009775659E-014
  -7.7100000000000002E-002    -4.6023704595651860E-014
  -7.5999999999999984E-002    -2.4320450438698044E-014
  -7.4899999999999994E-002     3.8411988704818018E-014
  -7.3799999999999991E-002     9.1297419114750450E-014
  -7.2699999999999987E-002     5.2687776965756536E-014
  -7.1599999999999997E-002    -8.0015462029618678E-014
  -7.0499999999999993E-002    -2.0943636365108875E-013
  -6.9399999999999989E-002    -2.2616378713390117E-013
  -6.8300000000000000E-002    -5.9080480308351668E-014
  -6.7199999999999996E-002     2.6774313018410045E-013
  -6.6099999999999992E-002     5.4861399711308989E-013
  -6.5000000000000002E-002     2.8899379092041377E-013
  -6.3899999999999985E-002    -4.5860011751649998E-013
  -6.2799999999999995E-002    -1.1317944194691454E-012
  -6.1699999999999991E-002    -1.0741222364676895E-012
  -6.0599999999999994E-002     1.2142598124903481E-013
  -5.9499999999999990E-002     1.5445493191726389E-012
  -5.8399999999999994E-002     1.8035381131251138E-012
  -5.7299999999999990E-002     6.0079388295927738E-013
  -5.6199999999999986E-002    -1.6347916943770802E-012
  -5.5099999999999996E-002    -1.7609302687890405E-012
  -5.3999999999999992E-002     1.4360223893252616E-013
  -5.2899999999999989E-002     2.5733083199031004E-012
  -5.1799999999999985E-002     1.9920193966571631E-012
  -5.0699999999999995E-002    -1.9153684714667829E-012
  -4.9599999999999991E-002    -7.2232194184285170E-012
  -4.8499999999999988E-002    -9.0649241585305518E-012
  -4.7399999999999998E-002    -5.6899055779491281E-012
  -4.6299999999999994E-002     1.5363852768138231E-012
  -4.5199999999999990E-002     1.0583277310072248E-011
  -4.4099999999999986E-002     2.5512113255299340E-011
  -4.2999999999999997E-002     3.0707734965940148E-011
  -4.1899999999999993E-002     1.2795718477842666E-011
  -4.0799999999999989E-002    -2.0241296486145366E-011
  -3.9699999999999985E-002    -4.5295673462009134E-011
  -3.8599999999999995E-002    -3.2397511756654396E-011
  -3.7499999999999992E-002     5.9890733865308743E-012
  -3.6399999999999988E-002     2.3088624762079846E-011
  -3.5299999999999984E-002    -6.8673712549927046E-012
  -3.4199999999999994E-002    -5.3068733435468474E-011
  -3.3099999999999991E-002    -5.7536305581029623E-011
  -3.1999999999999987E-002    -1.1027036055100137E-011
  -3.0899999999999997E-002     6.4051673687171018E-011
  -2.9799999999999993E-002     1.3408872623354995E-010
  -2.8699999999999989E-002     1.1673689792601749E-010
  -2.7599999999999986E-002     2.2079529177210233E-011
  -2.6499999999999996E-002    -7.3698207259109694E-011
  -2.5399999999999992E-002    -1.1233707020164019E-010
  -2.4299999999999988E-002    -7.5911124608474267E-011
  -2.3199999999999985E-002    -4.6207399018172168E-011
  -2.2099999999999995E-002    -7.5883292705025696E-011
  -2.0999999999999991E-002    -1.4589252028684996E-010
  -1.9899999999999987E-002    -2.2262397481043195E-010
  -1.8799999999999983E-002    -2.1420727691623398E-010
  -1.7699999999999994E-002    -6.3647052038484642E-012
  -1.6599999999999990E-002     1.8579268679097538E-010
  -1.5499999999999986E-002     2.9504268472813067E-010
  -1.4399999999999996E-002     1.8918160094028025E-010
  -1.3299999999999992E-002     3.1783492504544597E-011
  -1.2199999999999989E-002    -6.2873893591497421E-011
  -1.1099999999999985E-002    -3.3903127527601384E-010
  -9.9999999999999950E-003    -7.9892931159619707E-010
  -8.8999999999999913E-003    -1.1019755108421236E-009
  -7.7999999999999875E-003    -1.0644292114392329E-009
  -6.6999999999999837E-003    -7.4006811789928406E-010
  -5.5999999999999939E-003    -3.9329961509793065E-010
  -4.4999999999999901E-003    -6.1977940141177967E-012
  -3.3999999999999864E-003     3.5401515052768673E-010
  -2.2999999999999826E-003     2.3919113911752277E-010
  -1.1999999999999927E-003    -3.4725434333582328E-011
  -9.9999999999988987E-005     6.1080168700655690E-011
   1.0000000000000148E-003     1.0845523368274712E-009
   2.1000000000000185E-003     2.5516910806544502E-009
   3.2000000000000084E-003     2.5489044208626410E-009
   4.3000000000000121E-003     9.5743279970861295E-010
   5.4000000000000159E-003    -2.2902507668121075E-010
   6.5000000000000058E-003    -2.3853408137597398E-010
   7.6000000000000234E-003     5.2216148072048441E-011
   8.7000000000000133E-003    -3.9871866919227728E-010
   9.8000000000000032E-003    -1.3381349361907269E-009
   1.0900000000000021E-002    -2.2282549139163166E-009
   1.2000000000000011E-002    -2.2041528602301241E-009
   1.3100000000000001E-002    -1.8484210828617620E-009
   1.4200000000000018E-002    -1.6360967025619289E-009
   1.5300000000000008E-002    -2.0691055535593250E-009
   1.6400000000000026E-002    -2.8068551927162844E-009
   1.7500000000000016E-002    -1.9133457040965141E-009
   1.8600000000000005E-002     8.0860795836912303E-010
   1.9700000000000023E-002     3.9249314909284294E-009
   2.0800000000000013E-002     4.6750332494127633E-009
   2.1900000000000003E-002     1.1049876569302342E-009
   2.3000000000000020E-002    -2.7877249397789683E-009
   2.4100000000000010E-002    -3.3282898659336979E-009
   2.5200000000000000E-002    -1.2233648816195597E-010
   2.6300000000000018E-002     1.9005059748167241E-009
   2.7400000000000008E-002    -1.2791018244584507E-010
   2.8500000000000025E-002    -4.8810666619658605E-009
   2.9600000000000015E-002    -7.3397048439005630E-009
   3.0700000000000005E-002    -2.8072331126338668E-009
   3.1800000000000023E-002     5.7764975025520471E-009
   3.2900000000000013E-002     9.6636370017222362E-009
   3.4000000000000002E-002     4.8029251686898533E-009
   3.5100000000000020E-002    -3.8939336199916852E-009
   3.6200000000000010E-002    -7.0696084542021254E-009
   3.7300000000000028E-002    -1.8200994045258767E-009
   3.8400000000000017E-002     7.0145942387966898E-009
   3.9500000000000007E-002     1.0435658559515559E-008
   4.0600000000000025E-002     4.9116866129850223E-009
   4.1700000000000015E-002    -4.6635442174647324E-009
   4.2800000000000005E-002    -9.0581835365810548E-009
   4.3900000000000022E-002    -4.4360835005363697E-009
   4.5000000000000012E-002     3.9683869523798876E-009
   4.6100000000000002E-002     6.1167102494152914E-009
   4.7200000000000020E-002    -1.1550392864378978E-009
   4.8300000000000010E-002    -1.0620474277800440E-008
   4.9400000000000027E-002    -1.1072530448075213E-008
   5.0500000000000017E-002    -2.8951416264355601E-010
   5.1600000000000007E-002     1.4060760555878460E-008
   5.2700000000000025E-002     1.8910295551677336E-008
   5.3800000000000014E-002     1.0566351349439174E-008
   5.4900000000000004E-002    -2.8685560593544324E-009
   5.6000000000000022E-002    -9.4199101852154854E-009
   5.7100000000000012E-002    -4.4628212236830223E-009
   5.8200000000000002E-002     3.9360443793157174E-009
   5.9300000000000019E-002     4.7701713690173619E-009
   6.0400000000000009E-002    -4.4700714241230344E-009
   6.1500000000000027E-002    -1.2527204162893213E-008
   6.2600000000000017E-002    -5.6341167287143890E-009
   6.3700000000000007E-002     1.3950524291317379E-008
   6.4800000000000024E-002     2.9734870565789606E-008
   6.5900000000000014E-002     2.6589439983126795E-008
   6.7000000000000004E-002     5.5897921846792542E-009
   6.8100000000000022E-002    -1.7202449242859075E-008
   6.9200000000000012E-002    -2.4076470594991406E-008
   7.0300000000000029E-002    -1.3669903431434705E-008
   7.1400000000000019E-002     1.2539976834702316E-009
   7.2500000000000009E-002     2.8410134245149266E-009
   7.3600000000000027E-002    -9.5541912159546882E-009
   7.4700000000000016E-002    -2.1232359870282380E-008
   7.5800000000000006E-002    -1.5092162186647329E-008
   7.6900000000000024E-002     7.8984037088503101E-009
   7.8000000000000014E-002     2.8988822009523574E-008
   7.9100000000000004E-002     2.7062357688123484E-008
   8.0200000000000021E-002     3.2304132702165589E-009
   8.1300000000000011E-002    -2.0637383357779981E-008
   8.2400000000000029E-002    -2.2169480473621661E-008
   8.3500000000000019E-002    -4.1580250353945303E-010
   8.4600000000000009E-002     2.3704096463461610E-008
   8.5700000000000026E-002     2.9360293751778954E-008
   8.6800000000000016E-002     1.5396571129144832E-008
   8.7900000000000006E-002    -1.5518188956065160E-009
   8.9000000000000024E-002    -3.7651002315897131E-009
   9.0100000000000013E-002     6.9887837739202041E-009
   9.1200000000000003E-002     1.3539039223076088E-008
   9.2300000000000021E-002     3.2658167281596207E-009
   9.3400000000000011E-002    -1.7673329466560972E-008
   9.4500000000000028E-002    -3.0043885601571674E-008
   9.5600000000000018E-002    -2.1261849170173264E-008
   9.6700000000000008E-002     1.5203326375612392E-009
   9.7800000000000026E-002     1.7311403865960528E-008
   9.8900000000000016E-002     1.1340405947635190E-008
  0.10000000000000001         -9.8317745056419881E-009
  0.10110000000000002         -2.5052550256532413E-008
  0.10220000000000001         -1.9550961738445949E-008
  0.10330000000000003          3.2722019538411473E-010
  0.10440000000000002          1.4576662543674956E-008
  0.10550000000000001          9.6453680598074243E-009
  0.10660000000000003         -8.1208870739146732E-009
  0.10770000000000002         -1.9899884406981982E-008
  0.10880000000000001         -1.3788809205550479E-008
  0.10990000000000003          4.2967824853690217E-009
  0.11100000000000002          1.6180004891452882E-008
  0.11210000000000001          1.0424117569129976E-008
  0.11320000000000002         -7.1270269685896892E-009
  0.11430000000000001         -1.9085284463926655E-008
  0.11540000000000003         -1.3296877376944849E-008
  0.11650000000000002          5.2547859397122920E-009
  0.11760000000000001          2.0687339841174435E-008
  0.11870000000000003          2.0757378038638308E-008
  0.11980000000000002          8.1717139721604326E-009
  0.12090000000000001         -3.6431364591749116E-009
  0.12200000000000003         -4.2722114734772276E-009
  0.12310000000000001          3.9182683764238391E-009
  0.12420000000000003          1.0163785368888512E-008
  0.12530000000000002          6.6844894064388427E-009
  0.12640000000000001         -3.2033244945495198E-009
  0.12750000000000003         -9.6493613099823961E-009
  0.12860000000000002         -5.8686588921830207E-009
  0.12970000000000001          5.1989315075218201E-009
  0.13080000000000003          1.3375967000683886E-008
  0.13190000000000002          1.1397967014659116E-008
  0.13300000000000001          1.1538759947526955E-009
  0.13410000000000000         -9.4117611482147367E-009
  0.13520000000000004         -1.4269113002285394E-008
  0.13630000000000003         -1.3503608009557411E-008
  0.13740000000000002         -1.1090037332905922E-008
  0.13850000000000001         -9.3923828714537194E-009
  0.13960000000000000         -5.6780624646535216E-009
  0.14070000000000005          2.8224798054310440E-009
  0.14180000000000004          1.3725095726613290E-008
  0.14290000000000003          1.9254416727676471E-008
  0.14400000000000002          1.3629332329401223E-008
  0.14510000000000001         -3.5371380824322785E-010
  0.14620000000000000         -1.2967667828434060E-008
  0.14730000000000004         -1.5220438243090939E-008
  0.14840000000000003         -7.2823218566497872E-009
  0.14950000000000002          2.2063868510002749E-009
  0.15060000000000001          4.3992449683116774E-009
  0.15170000000000000         -6.4772909258437039E-010
  0.15280000000000005         -4.3054440013179374E-009
  0.15390000000000004          1.4815613180729770E-009
  0.15500000000000003          1.5178379442204459E-008
  0.15610000000000002          2.5406531989347059E-008
  0.15720000000000001          2.1318594889407905E-008
  0.15830000000000000          3.1072691086819759E-009
  0.15940000000000004         -1.6609833508596239E-008
  0.16050000000000003         -2.2680826106125096E-008
  0.16160000000000002         -1.0781080916899555E-008
  0.16270000000000001          8.2150890534649079E-009
  0.16380000000000000          1.7437150390264833E-008
  0.16490000000000005          9.2195282519469401E-009
  0.16600000000000004         -8.2321855998657156E-009
  0.16710000000000003         -1.8076587338100580E-008
  0.16820000000000002         -1.0344620271496296E-008
  0.16930000000000001          8.8072802384431270E-009
  0.17040000000000000          2.2442478098128049E-008
  0.17150000000000004          1.8031872883739197E-008
  0.17260000000000003         -1.0701466379714475E-009
  0.17370000000000002         -1.8581241434389995E-008
  0.17480000000000001         -2.0094569563866571E-008
  0.17590000000000000         -5.7580202827978155E-009
  0.17700000000000005          1.0365519109711840E-008
  0.17810000000000004          1.3740367066361614E-008
  0.17920000000000003          2.2815132005860050E-009
  0.18030000000000002         -1.2481312872125727E-008
  0.18140000000000001         -1.7026922094487418E-008
  0.18250000000000000         -8.4098612518346272E-009
  0.18360000000000004          4.1167309561274124E-009
  0.18470000000000003          9.0309679734446036E-009
  0.18580000000000002          3.9806322682522932E-009
  0.18690000000000001         -2.6062918490055154E-009
  0.18800000000000000         -1.0598889543800283E-009
  0.18910000000000005          9.0282163967003726E-009
  0.19020000000000004          1.8023960990376509E-008
  0.19130000000000003          1.6208694830766035E-008
  0.19240000000000002          3.9554981512424092E-009
  0.19350000000000001         -8.1654958350441120E-009
  0.19460000000000005         -9.8244719026752136E-009
  0.19570000000000004         -9.9762365035616085E-010
  0.19680000000000003          8.4706375247378674E-009
  0.19790000000000002          9.1860075102090377E-009
  0.19900000000000001          1.7121714046552938E-009
  0.20010000000000000         -4.5997015085674775E-009
  0.20120000000000005         -2.3872377408196144E-009
  0.20230000000000004          5.2686344176322564E-009
  0.20340000000000003          7.8612041320980097E-009
  0.20450000000000002         -8.4740037209485308E-010
  0.20560000000000000         -1.4895269018211366E-008
  0.20670000000000005         -2.1015956974679284E-008
  0.20780000000000004         -1.2026493578787267E-008
  0.20890000000000003          4.7624273413759965E-009
