 -0.12000000000000000          0.0000000000000000
 -0.11889999999999999          0.0000000000000000
 -0.11780000000000000          0.0000000000000000
 -0.11670000000000000          0.0000000000000000
 -0.11559999999999999          0.0000000000000000
 -0.11449999999999999          0.0000000000000000
 -0.11340000000000000          0.0000000000000000
 -0.11230000000000000          0.0000000000000000
 -0.11119999999999999         -4.7447740125844638E-025
 -0.11009999999999999          5.6224250583850134E-024
 -0.10900000000000000         -2.6453101188894341E-022
 -0.10790000000000000         -7.3849043248309492E-022
 -0.10679999999999999          2.7233944238092431E-021
 -0.10569999999999999          3.7011869352290610E-021
 -0.10460000000000000         -6.4529341862239096E-020
 -0.10349999999999999         -1.9502138741660390E-019
 -0.10239999999999999          3.0437235087533843E-019
 -0.10130000000000000          2.4726905915144594E-018
 -0.10020000000000000          2.7698180034465697E-018
  -9.9099999999999994E-002    -1.2100601842272853E-017
  -9.7999999999999990E-002    -4.4026433331506232E-017
  -9.6899999999999986E-002    -2.0925793451962330E-017
  -9.5799999999999996E-002     1.9955588017542963E-016
  -9.4699999999999993E-002     5.2791063739828252E-016
  -9.3599999999999989E-002     1.4564296100163246E-016
  -9.2499999999999999E-002    -2.0795315305627195E-015
  -9.1399999999999995E-002    -4.9030785907852505E-015
  -9.0299999999999991E-002    -1.6260822890081417E-015
  -8.9200000000000002E-002     1.5515393874190875E-014
  -8.8099999999999984E-002     3.7108459209102274E-014
  -8.6999999999999994E-002     1.9553872477912244E-014
  -8.5899999999999990E-002    -8.6073983769467677E-014
  -8.4799999999999986E-002    -2.3177727098699918E-013
  -8.3699999999999997E-002    -1.8231529025185267E-013
  -8.2599999999999993E-002     3.4546050373639170E-013
  -8.1499999999999989E-002     1.1913020483284020E-012
  -8.0399999999999999E-002     1.2891464154854426E-012
  -7.9299999999999995E-002    -8.2615067131114328E-013
  -7.8199999999999992E-002    -4.9710248938017454E-012
  -7.7100000000000002E-002    -7.1104944848743301E-012
  -7.5999999999999984E-002    -6.3117078837743312E-013
  -7.4899999999999994E-002     1.6275245040553443E-011
  -7.3799999999999991E-002     3.1192382010658548E-011
  -7.2699999999999987E-002     1.8525608130870452E-011
  -7.1599999999999997E-002    -3.7810123088011238E-011
  -7.0499999999999993E-002    -1.0904972758130071E-010
  -6.9399999999999989E-002    -1.1158644147579722E-010
  -6.8300000000000000E-002     3.5597708808454698E-011
  -6.7199999999999996E-002     2.9631841425015182E-010
  -6.6099999999999992E-002     4.4556208722568158E-010
  -6.5000000000000002E-002     1.7924454975837278E-010
  -6.3899999999999985E-002    -5.6919535751376316E-010
  -6.2799999999999995E-002    -1.3270912146978731E-009
  -6.1699999999999991E-002    -1.1901681862269697E-009
  -6.0599999999999994E-002     4.5053955011198354E-010
  -5.9499999999999990E-002     2.9453930405765050E-009
  -5.8399999999999994E-002     4.1507908221660728E-009
  -5.7299999999999990E-002     1.7422630005370365E-009
  -5.6199999999999986E-002    -4.3164174456933324E-009
  -5.5099999999999996E-002    -1.0133053507388468E-008
  -5.3999999999999992E-002    -9.4475707257402064E-009
  -5.2899999999999989E-002     1.2578948993535732E-009
  -5.1799999999999985E-002     1.7396944329561848E-008
  -5.0699999999999995E-002     2.6176600442795461E-008
  -4.9599999999999991E-002     1.4840122020132185E-008
  -4.8499999999999988E-002    -1.6654128742743524E-008
  -4.7399999999999998E-002    -4.9003247681866924E-008
  -4.6299999999999994E-002    -5.2579405718233829E-008
  -4.5199999999999990E-002    -1.0678236073147218E-008
  -4.4099999999999986E-002     5.9069886759743895E-008
  -4.2999999999999997E-002     1.0639482184160443E-007
  -4.1899999999999993E-002     8.1082760061690351E-008
  -4.0799999999999989E-002    -2.1770043545643603E-008
  -3.9699999999999985E-002    -1.4114762336703279E-007
  -3.8599999999999995E-002    -1.8171229498875618E-007
  -3.7499999999999992E-002    -8.6318941328045184E-008
  -3.6399999999999988E-002     1.0303882191919911E-007
  -3.5299999999999984E-002     2.5397338276889059E-007
  -3.4199999999999994E-002     2.3414685301759164E-007
  -3.3099999999999991E-002     2.5017650173708716E-008
  -3.1999999999999987E-002    -2.3614657607140543E-007
  -3.0899999999999997E-002    -3.4105343615919992E-007
  -2.9799999999999993E-002    -1.7686534192762338E-007
  -2.8699999999999989E-002     1.5505501949064637E-007
  -2.7599999999999986E-002     3.8539815250260290E-007
  -2.6499999999999996E-002     2.8442892130442488E-007
  -2.5399999999999992E-002    -1.1916244346821259E-007
  -2.4299999999999988E-002    -5.0341486712568440E-007
  -2.3199999999999985E-002    -4.7803519009903539E-007
  -2.2099999999999995E-002     7.0386057871019148E-008
  -2.0999999999999991E-002     7.9349803172590327E-007
  -1.9899999999999987E-002     1.0627522897266317E-006
  -1.8799999999999983E-002     4.5085738520356244E-007
  -1.7699999999999994E-002    -8.3044210441585165E-007
  -1.6599999999999990E-002    -1.9236292700952617E-006
  -1.5499999999999986E-002    -1.8613674228618038E-006
  -1.4399999999999996E-002    -3.2857124665497395E-007
  -1.3299999999999992E-002     1.9201970644644462E-006
  -1.2199999999999989E-002     3.3965870898100547E-006
  -1.1099999999999985E-002     2.8536587706184946E-006
  -9.9999999999999950E-003     2.6208394388049783E-007
  -8.8999999999999913E-003    -2.9592131340905325E-006
  -7.7999999999999875E-003    -4.7462858674407471E-006
  -6.6999999999999837E-003    -3.7680649711546721E-006
  -5.5999999999999939E-003    -4.2728009930215194E-007
  -4.4999999999999901E-003     3.2892319268285064E-006
  -3.3999999999999864E-003     5.0954813559656031E-006
  -2.2999999999999826E-003     3.9577098505105823E-006
  -1.1999999999999927E-003     7.8370374012592947E-007
  -9.9999999999988987E-005    -2.2856665964354761E-006
   1.0000000000000148E-003    -3.4669042179302778E-006
   2.1000000000000185E-003    -2.5817876121436711E-006
   3.2000000000000084E-003    -9.7395479770057136E-007
   4.3000000000000121E-003    -1.7034737709309411E-007
   5.4000000000000159E-003    -4.3810118199871795E-007
   6.5000000000000058E-003    -5.5339097571049933E-007
   7.6000000000000234E-003     8.8962667632586090E-007
   8.7000000000000133E-003     3.7146571685298113E-006
   9.8000000000000032E-003     5.6558615142421331E-006
   1.0900000000000021E-002     3.9576734707225114E-006
   1.2000000000000011E-002    -1.9064625575992977E-006
   1.3100000000000001E-002    -8.7165581135195680E-006
   1.4200000000000018E-002    -1.1014039955625776E-005
   1.5300000000000008E-002    -5.1789015742542688E-006
   1.6400000000000026E-002     6.8127956183161587E-006
   1.7500000000000016E-002     1.7315511286142282E-005
   1.8600000000000005E-002     1.7660579032963142E-005
   1.9700000000000023E-002     4.8138272177311592E-006
   2.0800000000000013E-002    -1.4949694559618365E-005
   2.1900000000000003E-002    -2.8961230782442726E-005
   2.3000000000000020E-002    -2.6636182155925781E-005
   2.4100000000000010E-002    -7.7924241850269027E-006
   2.5200000000000000E-002     1.5842037100810558E-005
   2.6300000000000018E-002     2.8304284569458105E-005
   2.7400000000000008E-002     2.1654654119629413E-005
   2.8500000000000025E-002     3.6710762287839316E-006
   2.9600000000000015E-002    -6.2219469327828847E-006
   3.0700000000000005E-002     8.0675617937231436E-006
   3.1800000000000023E-002     4.3197058403166011E-005
   3.2900000000000013E-002     7.1950060373637825E-005
   3.4000000000000002E-002     5.6966367992572486E-005
   3.5100000000000020E-002    -2.3241673261509277E-005
   3.6200000000000010E-002    -1.5213535516522825E-004
   3.7300000000000028E-002    -2.7329838485457003E-004
   3.8400000000000017E-002    -3.1403021421283484E-004
   3.9500000000000007E-002    -2.2318567789625376E-004
   4.0600000000000025E-002    -1.5518288591920282E-006
   4.1700000000000015E-002     2.9382621869444847E-004
   4.2800000000000005E-002     5.7432905305176973E-004
   4.3900000000000022E-002     7.5821118662133813E-004
   4.5000000000000012E-002     7.9912348883226514E-004
   4.6100000000000002E-002     6.8841979373246431E-004
   4.7200000000000020E-002     4.3342399294488132E-004
   4.8300000000000010E-002     3.0621700716437772E-005
   4.9400000000000027E-002    -5.4410146549344063E-004
   5.0500000000000017E-002    -1.3190583558753133E-003
   5.1600000000000007E-002    -2.2952831350266933E-003
   5.2700000000000025E-002    -3.4240295644849539E-003
   5.3800000000000014E-002    -4.6134279109537601E-003
   5.4900000000000004E-002    -5.7658609002828598E-003
   5.6000000000000022E-002    -6.8271094933152199E-003
   5.7100000000000012E-002    -7.8200036659836769E-003
   5.8200000000000002E-002    -8.8453227654099464E-003
   5.9300000000000019E-002    -1.0053876787424088E-002
   6.0400000000000009E-002    -1.1611472815275192E-002
   6.1500000000000027E-002    -1.3680578209459782E-002
   6.2600000000000017E-002    -1.6427872702479362E-002
   6.3700000000000007E-002    -2.0046122372150421E-002
   6.4800000000000024E-002    -2.4766843765974045E-002
   6.5900000000000014E-002    -3.0845841392874718E-002
   6.7000000000000004E-002    -3.8523230701684952E-002
   6.8100000000000022E-002    -4.7980502247810364E-002
   6.9200000000000012E-002    -5.9325437992811203E-002
   7.0300000000000029E-002    -7.2625651955604553E-002
   7.1400000000000019E-002    -8.7988048791885376E-002
   7.2500000000000009E-002   -0.10565883666276932
   7.3600000000000027E-002   -0.12610420584678650
   7.4700000000000016E-002   -0.15003922581672668
   7.5800000000000006E-002   -0.17838697135448456
   7.6900000000000024E-002   -0.21217915415763855
   7.8000000000000014E-002   -0.25242727994918823
   7.9100000000000004E-002   -0.30001485347747803
   8.0200000000000021E-002   -0.35565328598022461
   8.1300000000000011E-002   -0.41992926597595215
   8.2400000000000029E-002   -0.49343553185462952
   8.3500000000000019E-002   -0.57693791389465332
   8.4600000000000009E-002   -0.67151093482971191
   8.5700000000000026E-002   -0.77857762575149536
   8.6800000000000016E-002   -0.89982974529266357
   8.7900000000000006E-002    -1.0370532274246216
   8.9000000000000024E-002    -1.1919544935226440
   9.0100000000000013E-002    -1.3660320043563843
   9.1200000000000003E-002    -1.5605626106262207
   9.2300000000000021E-002    -1.7766566276550293
   9.3400000000000011E-002    -2.0153367519378662
   9.4500000000000028E-002    -2.2775461673736572
   9.5600000000000018E-002    -2.5640816688537598
   9.6700000000000008E-002    -2.8754782676696777
   9.7800000000000026E-002    -3.2118988037109375
   9.8900000000000016E-002    -3.5731108188629150
  0.10000000000000001         -3.9584939479827881
  0.10110000000000002         -4.3670730590820312
  0.10220000000000001         -4.7974638938903809
  0.10330000000000003         -5.2477049827575684
  0.10440000000000002         -5.7150373458862305
  0.10550000000000001         -6.1956958770751953
  0.10660000000000003         -6.6848506927490234
  0.10770000000000002         -7.1766037940979004
  0.10880000000000001         -7.6641435623168945
  0.10990000000000003         -8.1398086547851562
  0.11100000000000002         -8.5950260162353516
  0.11210000000000001         -9.0202770233154297
  0.11320000000000002         -9.4049806594848633
  0.11430000000000001         -9.7374296188354492
  0.11540000000000003         -10.005056381225586
  0.11650000000000002         -10.194635391235352
  0.11760000000000001         -10.292553901672363
  0.11870000000000003         -10.285109519958496
  0.11980000000000002         -10.158463478088379
  0.12090000000000001         -9.8986482620239258
  0.12200000000000003         -9.4919061660766602
  0.12310000000000001         -8.9248533248901367
  0.12420000000000003         -8.1850395202636719
  0.12530000000000002         -7.2614450454711914
  0.12640000000000001         -6.1449346542358398
  0.12750000000000003         -4.8287792205810547
  0.12860000000000002         -3.3089265823364258
  0.12970000000000001         -1.5839592218399048
  0.13080000000000003         0.34448114037513733
  0.13190000000000002          2.4712245464324951
  0.13300000000000001          4.7874889373779297
  0.13410000000000000          7.2806000709533691
  0.13520000000000004          9.9333562850952148
  0.13630000000000003          12.724163055419922
  0.13740000000000002          15.627390861511230
  0.13850000000000001          18.613164901733398
  0.13960000000000000          21.647958755493164
  0.14070000000000005          24.694425582885742
  0.14180000000000004          27.711751937866211
  0.14290000000000003          30.656435012817383
  0.14400000000000002          33.482269287109375
  0.14510000000000001          36.141754150390625
  0.14620000000000000          38.586551666259766
  0.14730000000000004          40.768154144287109
  0.14840000000000003          42.639152526855469
  0.14950000000000002          44.154117584228516
  0.15060000000000001          45.270771026611328
  0.15170000000000000          45.950344085693359
  0.15280000000000005          46.159221649169922
  0.15390000000000004          45.869213104248047
  0.15500000000000003          45.058509826660156
  0.15610000000000002          43.712646484375000
  0.15720000000000001          41.824512481689453
  0.15830000000000000          39.395526885986328
  0.15940000000000004          36.435573577880859
  0.16050000000000003          32.963317871093750
  0.16160000000000002          29.006355285644531
  0.16270000000000001          24.600860595703125
  0.16380000000000000          19.791557312011719
  0.16490000000000005          14.630821228027344
  0.16600000000000004          9.1781244277954102
  0.16710000000000003          3.4987170696258545
  0.16820000000000002         -2.3370256423950195
  0.16930000000000001         -8.2549657821655273
  0.17040000000000000         -14.178094863891602
  0.17150000000000004         -20.028162002563477
  0.17260000000000003         -25.726976394653320
  0.17370000000000002         -31.198215484619141
  0.17480000000000001         -36.367950439453125
  0.17590000000000000         -41.166694641113281
  0.17700000000000005         -45.530307769775391
  0.17810000000000004         -49.401012420654297
  0.17920000000000003         -52.729347229003906
  0.18030000000000002         -55.474674224853516
  0.18140000000000001         -57.605365753173828
  0.18250000000000000         -59.099739074707031
  0.18360000000000004         -59.945854187011719
  0.18470000000000003         -60.141723632812500
  0.18580000000000002         -59.695850372314453
  0.18690000000000001         -58.625942230224609
  0.18800000000000000         -56.959384918212891
  0.18910000000000005         -54.731769561767578
  0.19020000000000004         -51.986389160156250
  0.19130000000000003         -48.773361206054688
  0.19240000000000002         -45.148807525634766
  0.19350000000000001         -41.173435211181641
  0.19460000000000005         -36.911151885986328
  0.19570000000000004         -32.428367614746094
  0.19680000000000003         -27.792026519775391
  0.19790000000000002         -23.068975448608398
  0.19900000000000001         -18.324056625366211
  0.20010000000000000         -13.620184898376465
  0.20120000000000005         -9.0167322158813477
  0.20230000000000004         -4.5688052177429199
  0.20340000000000003        -0.32679417729377747
  0.20450000000000002          3.6645312309265137
  0.20560000000000000          7.3662528991699219
  0.20670000000000005          10.745783805847168
  0.20780000000000004          13.776559829711914
  0.20890000000000003          16.438550949096680
