 -0.12000000000000000          0.0000000000000000
 -0.11889999999999999          0.0000000000000000
 -0.11780000000000000          0.0000000000000000
 -0.11670000000000000          0.0000000000000000
 -0.11559999999999999          2.1515273829035564E-013
 -0.11449999999999999         -1.1037895857740621E-012
 -0.11340000000000000         -1.9868212977613986E-012
 -0.11230000000000000          6.1812217670709213E-012
 -0.11119999999999999          1.0596379676486301E-011
 -0.11009999999999999         -2.1192759352972601E-011
 -0.10900000000000000         -2.0530485297931556E-011
 -0.10790000000000000          1.7660633372384993E-011
 -0.10679999999999999          4.2385518705945202E-011
 -0.10569999999999999          3.5321266744769986E-011
 -0.10460000000000000          0.0000000000000000
 -0.10349999999999999         -8.4771037411890404E-011
 -0.10239999999999999         -2.8257013048871293E-011
 -0.10130000000000000          0.0000000000000000
 -0.10020000000000000         -2.8257013048871293E-011
  -9.9099999999999994E-002     2.4018462219110859E-010
  -9.7999999999999990E-002     1.1302805219548517E-010
  -9.6899999999999986E-002    -5.6514026097742587E-011
  -9.5799999999999996E-002    -8.1945339402977879E-010
  -9.4699999999999993E-002    -3.5321265356991205E-010
  -9.3599999999999989E-002     7.6293937834037706E-010
  -9.2499999999999999E-002     1.8084488351277628E-009
  -9.1399999999999995E-002    -2.2605610439097035E-010
  -9.0299999999999991E-002    -2.2040469449535749E-009
  -8.9200000000000002E-002    -1.2009230276888161E-009
  -8.8099999999999984E-002     1.2362443013724800E-010
  -8.6999999999999994E-002     7.2055383881775015E-010
  -8.5899999999999990E-002     1.6954208037489593E-009
  -8.4799999999999986E-002     2.0345050089076722E-009
  -8.3699999999999997E-002     3.7299257016343290E-009
  -8.2599999999999993E-002     4.7471782060881651E-009
  -8.1499999999999989E-002    -7.3468235939344595E-009
  -8.0399999999999999E-002    -1.7971460763988034E-008
  -7.9299999999999995E-002    -1.5597871438899347E-008
  -7.8199999999999992E-002     1.5823927057567744E-008
  -7.7100000000000002E-002     3.1986939319494923E-008
  -7.5999999999999984E-002     3.3908417407246816E-008
  -7.4899999999999994E-002    -8.1380200356306887E-009
  -7.3799999999999991E-002    -7.5615766093051207E-008
  -7.2699999999999987E-002    -7.7763303352185176E-008
  -7.1599999999999997E-002     2.7126731971804929E-009
  -7.0499999999999993E-002     9.3135113843345607E-008
  -6.9399999999999989E-002     1.5190970259482128E-007
  -6.8300000000000000E-002     1.3201676551943820E-007
  -6.7199999999999996E-002    -3.7977425648705321E-008
  -6.6099999999999992E-002    -4.4668686882687325E-007
  -6.5000000000000002E-002    -4.0328407635570329E-007
  -6.3899999999999985E-002     6.1487263280923798E-008
  -6.2799999999999995E-002     6.0402192048059078E-007
  -6.1699999999999991E-002     9.4039342002361082E-007
  -6.0599999999999994E-002     1.8807867263603839E-007
  -5.9499999999999990E-002    -9.6209475941577693E-007
  -5.8399999999999994E-002    -1.2080438409611816E-006
  -5.7299999999999990E-002    -8.5358783508127090E-007
  -5.6199999999999986E-002     1.7433446828363230E-006
  -5.5099999999999996E-002     1.6782405509729870E-006
  -5.3999999999999992E-002     4.3402772575973358E-007
  -5.2899999999999989E-002    -2.4884257072699256E-006
  -5.1799999999999985E-002    -2.7488422347232699E-006
  -5.0699999999999995E-002    -1.1574072686926229E-006
  -4.9599999999999991E-002     2.8645829388551647E-006
  -4.8499999999999988E-002     4.3113418541906867E-006
  -4.7399999999999998E-002     3.1828699320612941E-006
  -4.6299999999999994E-002     1.5046293810883071E-006
  -4.5199999999999990E-002     4.8611104830342811E-006
  -4.4099999999999986E-002    -8.0439804150955752E-006
  -4.2999999999999997E-002    -1.9097220501862466E-005
  -4.1899999999999993E-002    -1.2499998774728738E-005
  -4.0799999999999989E-002     6.5972212723863777E-006
  -3.9699999999999985E-002     3.1365736504085362E-005
  -3.8599999999999995E-002     2.1064812244731002E-005
  -3.7499999999999992E-002    -1.7592590666026808E-005
  -3.6399999999999988E-002    -3.8888883864274248E-005
  -3.5299999999999984E-002    -1.3425924407783896E-005
  -3.4199999999999994E-002     3.4490734833525494E-005
  -3.3099999999999991E-002     4.2129624489462003E-005
  -3.1999999999999987E-002     2.3611108190380037E-005
  -3.0899999999999997E-002    -4.1666662582429126E-006
  -2.9799999999999993E-002    -7.2222210292238742E-005
  -2.8699999999999989E-002    -6.3888881413731724E-005
  -2.7599999999999986E-002    -9.2592580358541454E-007
  -2.6499999999999996E-002     4.7222216380760074E-005
  -2.5399999999999992E-002     6.2037026509642601E-005
  -2.4299999999999988E-002    -5.5555547078256495E-006
  -2.3199999999999985E-002    -4.9074067646870390E-005
  -2.2099999999999995E-002    -3.3333330065943301E-005
  -2.0999999999999991E-002    -5.5555547078256495E-006
  -1.9899999999999987E-002     7.0370362664107233E-005
  -1.8799999999999983E-002     1.6481478814966977E-004
  -1.7699999999999994E-002    -1.2962961591256317E-005
  -1.6599999999999990E-002    -6.8518507760018110E-005
  -1.5499999999999986E-002    -1.7777775065042078E-004
  -1.4399999999999996E-002    -4.2592586396494880E-005
  -1.3299999999999992E-002     5.1851846365025267E-005
  -1.2199999999999989E-002    -1.4999997802078724E-004
  -1.1099999999999985E-002    -1.5185182564891875E-004
  -9.9999999999999950E-003     1.2962961045559496E-004
  -8.8999999999999913E-003     2.8148145065642893E-004
  -7.7999999999999875E-003     2.3703700571786612E-004
  -6.6999999999999837E-003     1.8518516299081966E-005
  -5.5999999999999939E-003     3.3333330065943301E-005
  -4.4999999999999901E-003    -2.2222218831302598E-005
  -3.3999999999999864E-003    -3.9259254117496312E-004
  -2.2999999999999826E-003    -1.3148145808372647E-004
  -1.1999999999999927E-003     3.0555552802979946E-004
  -9.9999999999988987E-005     7.6666654786095023E-004
   1.0000000000000148E-003     3.6666661617346108E-004
   2.1000000000000185E-003    -1.2148146051913500E-003
   3.2000000000000084E-003    -1.3129627332091331E-003
   4.3000000000000121E-003     3.3472216455265880E-004
   5.4000000000000159E-003     9.7268505487591028E-004
   6.5000000000000058E-003     2.4814810603857040E-004
   7.6000000000000234E-003    -6.1296287458389997E-004
   8.7000000000000133E-003    -4.0370365604758263E-004
   9.8000000000000032E-003     4.0740735130384564E-005
   1.0900000000000021E-002     7.5555546209216118E-004
   1.2000000000000011E-002     2.7407403104007244E-004
   1.3100000000000001E-002    -1.1851850285893306E-004
   1.4200000000000018E-002    -5.3333328105509281E-004
   1.5300000000000008E-002    -2.5185183039866388E-004
   1.6400000000000026E-002     1.3481479836627841E-003
   1.7500000000000016E-002     1.5111109241843224E-003
   1.8600000000000005E-002     3.2592588104307652E-004
   1.9700000000000023E-002    -1.9555552862584591E-003
   2.0800000000000013E-002    -3.5703699104487896E-003
   2.1900000000000003E-002    -2.6666664052754641E-004
   2.3000000000000020E-002     2.7703701052814722E-003
   2.4100000000000010E-002     3.0962959863245487E-003
   2.5200000000000000E-002    -9.7777764312922955E-004
   2.6300000000000018E-002    -3.3481477294117212E-003
   2.7400000000000008E-002    -2.2518516052514315E-003
   2.8500000000000025E-002     1.8962960457429290E-003
   2.9600000000000015E-002     5.7777771726250648E-003
   3.0700000000000005E-002     3.3481477294117212E-003
   3.1800000000000023E-002    -3.8814810104668140E-003
   3.2900000000000013E-002    -7.2296285070478916E-003
   3.4000000000000002E-002    -3.1703698914498091E-003
   3.5100000000000020E-002     4.5629623346030712E-003
   3.6200000000000010E-002     6.9629619829356670E-003
   3.7300000000000028E-002     2.9629624914377928E-003
   3.8400000000000017E-002    -4.4740736484527588E-003
   3.9500000000000007E-002    -7.3925917968153954E-003
   4.0600000000000025E-002    -3.3481477294117212E-003
   4.1700000000000015E-002     4.2814807966351509E-003
   4.2800000000000005E-002     7.4518509209156036E-003
   4.3900000000000022E-002     3.1259255483746529E-003
   4.5000000000000012E-002    -5.1703695207834244E-003
   4.6100000000000002E-002    -7.7851843088865280E-003
   4.7200000000000020E-002    -1.8129626987501979E-003
   4.8300000000000010E-002     7.4490732513368130E-003
   4.9400000000000027E-002     9.2851836234331131E-003
   5.0500000000000017E-002     2.9481477104127407E-003
   5.1600000000000007E-002    -7.8518511727452278E-003
   5.2700000000000025E-002    -1.0903702117502689E-002
   5.3800000000000014E-002    -4.2074066586792469E-003
   5.4900000000000004E-002     5.6888880208134651E-003
   5.6000000000000022E-002     9.5111094415187836E-003
   5.7100000000000012E-002     2.8444440104067326E-003
   5.8200000000000002E-002    -6.2518510967493057E-003
   5.9300000000000019E-002    -8.3259250968694687E-003
   6.0400000000000009E-002     9.7777764312922955E-004
   6.1500000000000027E-002     1.2355553917586803E-002
   6.2600000000000017E-002     1.0488887317478657E-002
   6.3700000000000007E-002    -3.1407403293997049E-003
   6.4800000000000024E-002    -1.5644442290067673E-002
   6.5900000000000014E-002    -1.4755553565919399E-002
   6.7000000000000004E-002    -1.4814812457188964E-003
   6.8100000000000022E-002     1.3155553489923477E-002
   6.9200000000000012E-002     1.4281479641795158E-002
   7.0300000000000029E-002     3.7333327345550060E-003
   7.1400000000000019E-002    -1.1022220365703106E-002
   7.2500000000000009E-002    -1.1555554345250130E-002
   7.3600000000000027E-002     5.9259252157062292E-004
   7.4700000000000016E-002     1.4725923538208008E-002
   7.5800000000000006E-002     1.3925923965871334E-002
   7.6900000000000024E-002    -1.5703701646998525E-003
   7.8000000000000014E-002    -1.9022218883037567E-002
   7.9100000000000004E-002    -1.8103701993823051E-002
   8.0200000000000021E-002    -2.9629625714733265E-005
   8.1300000000000011E-002     1.8459256738424301E-002
   8.2400000000000029E-002     1.9244441762566566E-002
   8.3500000000000019E-002     1.9555552862584591E-003
   8.4600000000000009E-002    -1.5259257517755032E-002
   8.5700000000000026E-002    -1.6214812174439430E-002
   8.6800000000000016E-002    -2.4666662793606520E-003
   8.7900000000000006E-002     1.2177776545286179E-002
   8.9000000000000024E-002     1.0716665536165237E-002
   9.0100000000000013E-002    -3.4740737173706293E-003
   9.1200000000000003E-002    -1.3903701677918434E-002
   9.2300000000000021E-002    -8.8148135691881180E-003
   9.3400000000000011E-002     7.0814806967973709E-003
   9.4500000000000028E-002     1.7481479793787003E-002
   9.5600000000000018E-002     1.1570368893444538E-002
   9.6700000000000008E-002    -5.7777771726250648E-003
   9.7800000000000026E-002    -1.7985181882977486E-002
   9.8900000000000016E-002    -1.2562961317598820E-002
  0.10000000000000001          4.9185180105268955E-003
  0.10110000000000002          1.7125923186540604E-002
  0.10220000000000001          1.1881479993462563E-002
  0.10330000000000003         -4.6518510207533836E-003
  0.10440000000000002         -1.5851849690079689E-002
  0.10550000000000001         -1.0607405565679073E-002
  0.10660000000000003          4.9481475725769997E-003
  0.10770000000000002          1.4785183593630791E-002
  0.10880000000000001          9.8962951451539993E-003
  0.10990000000000003         -5.1259254105389118E-003
  0.11100000000000002         -1.4577776193618774E-002
  0.11210000000000001         -9.7481468692421913E-003
  0.11320000000000002          4.6222214587032795E-003
  0.11430000000000001          1.4666664414107800E-002
  0.11540000000000003          1.0548146441578865E-002
  0.11650000000000002         -2.5777774862945080E-003
  0.11760000000000001         -1.2696295045316219E-002
  0.11870000000000003         -1.0459258221089840E-002
  0.11980000000000002          6.3703698106110096E-004
  0.12090000000000001          9.2444429174065590E-003
  0.12200000000000003          7.2888880968093872E-003
  0.12310000000000001         -1.6074072336778045E-003
  0.12420000000000003         -8.0370362848043442E-003
  0.12530000000000002         -5.2962955087423325E-003
  0.12640000000000001          2.8444440104067326E-003
  0.12750000000000003          8.4518510848283768E-003
  0.12860000000000002          6.0222214087843895E-003
  0.12970000000000001         -2.3888885043561459E-003
  0.13080000000000003         -8.3925910294055939E-003
  0.13190000000000002         -6.8314806558191776E-003
  0.13300000000000001         -2.6574070216156542E-004
  0.13410000000000000          4.7175921499729156E-003
  0.13520000000000004          4.6469899825751781E-003
  0.13630000000000003          1.3620369136333466E-003
  0.13740000000000002         -5.9166661230847239E-004
  0.13850000000000001          1.6666664741933346E-003
  0.13960000000000000          3.9555551484227180E-003
  0.14070000000000005          1.9851848483085632E-003
  0.14180000000000004         -4.4407402165234089E-003
  0.14290000000000003         -9.2185176908969879E-003
  0.14400000000000002         -6.9074062630534172E-003
  0.14510000000000001          1.1314813746139407E-003
  0.14620000000000000          8.5629615932703018E-003
  0.14730000000000004          8.4222210571169853E-003
  0.14840000000000003          1.2814813526347280E-003
  0.14950000000000002         -6.0296286828815937E-003
  0.15060000000000001         -5.9833326376974583E-003
  0.15170000000000000          1.1481479741632938E-003
  0.15280000000000005          7.8055546618998051E-003
  0.15390000000000004          6.5370360389351845E-003
  0.15500000000000003         -2.8666662983596325E-003
  0.15610000000000002         -1.1831480078399181E-002
  0.15720000000000001         -1.1672221124172211E-002
  0.15830000000000000         -1.2444442836567760E-003
  0.15940000000000004          1.1277776211500168E-002
  0.16050000000000003          1.4851849526166916E-002
  0.16160000000000002          5.8648139238357544E-003
  0.16270000000000001         -8.0777769908308983E-003
  0.16380000000000000         -1.4412960968911648E-002
  0.16490000000000005         -7.6314806938171387E-003
  0.16600000000000004          6.2870359979569912E-003
  0.16710000000000003          1.4525923877954483E-002
  0.16820000000000002          9.4379615038633347E-003
  0.16930000000000001         -4.5592584647238255E-003
  0.17040000000000000         -1.4913886785507202E-002
  0.17150000000000004         -1.2141665443778038E-002
  0.17260000000000003          1.3148146681487560E-003
  0.17370000000000002          1.3221294619143009E-002
  0.17480000000000001          1.3099072501063347E-002
  0.17590000000000000          1.4768516412004828E-003
  0.17700000000000005         -1.0536110028624535E-002
  0.17810000000000004         -1.2259257957339287E-002
  0.17920000000000003         -2.7305551338940859E-003
  0.18030000000000002          8.4439804777503014E-003
  0.18140000000000001          1.0878239758312702E-002
  0.18250000000000000          3.2310180831700563E-003
  0.18360000000000004         -6.2912027351558208E-003
  0.18470000000000003         -8.2351844757795334E-003
  0.18580000000000002         -1.2699072249233723E-003
  0.18690000000000001          6.7217582836747169E-003
  0.18800000000000000          7.0592584088444710E-003
  0.18910000000000005         -9.0277765411883593E-004
  0.19020000000000004         -8.9347213506698608E-003
  0.19130000000000003         -8.6263874545693398E-003
  0.19240000000000002          1.0925924289040267E-004
  0.19350000000000001          8.6462954059243202E-003
  0.19460000000000005          8.6659714579582214E-003
  0.19570000000000004          5.3009251132607460E-004
  0.19680000000000003         -7.2337952442467213E-003
  0.19790000000000002         -6.7679388448596001E-003
  0.19900000000000001          9.6030079293996096E-004
  0.20010000000000000          7.0449062623083591E-003
  0.20120000000000005          4.4986847788095474E-003
  0.20230000000000004         -4.1845482774078846E-003
  0.20340000000000003         -9.3398131430149078E-003
  0.20450000000000002         -4.4126152060925961E-003
  0.20560000000000000          6.5513881854712963E-003
  0.20670000000000005          1.2487730011343956E-002
  0.20780000000000004          6.4458325505256653E-003
  0.20890000000000003         -6.2805549241602421E-003
