 -0.12000000000000000          0.0000000000000000
 -0.11889999999999999          0.0000000000000000
 -0.11780000000000000          0.0000000000000000
 -0.11670000000000000          0.0000000000000000
 -0.11559999999999999          0.0000000000000000
 -0.11449999999999999          0.0000000000000000
 -0.11340000000000000          0.0000000000000000
 -0.11230000000000000          0.0000000000000000
 -0.11119999999999999          0.0000000000000000
 -0.11009999999999999          0.0000000000000000
 -0.10900000000000000          0.0000000000000000
 -0.10790000000000000          0.0000000000000000
 -0.10679999999999999          0.0000000000000000
 -0.10569999999999999          0.0000000000000000
 -0.10460000000000000          0.0000000000000000
 -0.10349999999999999          0.0000000000000000
 -0.10239999999999999          0.0000000000000000
 -0.10130000000000000         -7.4495716546751733E-028
 -0.10020000000000000         -1.0608311023176553E-026
  -9.9099999999999994E-002    -5.3267247142345728E-026
  -9.7999999999999990E-002     2.0941907399085711E-026
  -9.6899999999999986E-002     1.7264378682942888E-024
  -9.5799999999999996E-002     1.0238803182567187E-023
  -9.4699999999999993E-002     2.7242355262390515E-023
  -9.3599999999999989E-002    -4.9617595722887526E-024
  -9.2499999999999999E-002    -3.3703308460791889E-022
  -9.1399999999999995E-002    -1.3713283326549307E-021
  -9.0299999999999991E-002    -2.4281638484972291E-021
  -8.9200000000000002E-002     1.9189398715718996E-021
  -8.8099999999999984E-002     2.4796131497386420E-020
  -8.6999999999999994E-002     7.2773017384594034E-020
  -8.5899999999999990E-002     8.6968276801313613E-020
  -8.4799999999999986E-002    -1.4558177155658977E-019
  -8.3699999999999997E-002    -9.3225116191104463E-019
  -8.2599999999999993E-002    -2.0798490769280725E-018
  -8.1499999999999989E-002    -1.5973219519916956E-018
  -8.0399999999999999E-002     5.0395217813629662E-018
  -7.9299999999999995E-002     2.1285807269963784E-017
  -7.8199999999999992E-002     3.7549334511252657E-017
  -7.7100000000000002E-002     1.5690168654058967E-017
  -7.5999999999999984E-002    -1.0387374143438338E-016
  -7.4899999999999994E-002    -3.2959129297694615E-016
  -7.3799999999999991E-002    -4.7277641582855285E-016
  -7.2699999999999987E-002    -5.1924482860338098E-017
  -7.1599999999999997E-002     1.4534833382581986E-015
  -7.0499999999999993E-002     3.7291777467678838E-015
  -6.9399999999999989E-002     4.4474273812051667E-015
  -6.8300000000000000E-002    -7.5226176597824649E-016
  -6.7199999999999996E-002    -1.4920044908751928E-014
  -6.6099999999999992E-002    -3.2523683317917454E-014
  -6.5000000000000002E-002    -3.3002277261906868E-014
  -6.3899999999999985E-002     1.3601435685476216E-014
  -6.2799999999999995E-002     1.1818798435585254E-013
  -6.1699999999999991E-002     2.2773132663488072E-013
  -6.0599999999999994E-002     2.0295035454715588E-013
  -5.9499999999999990E-002    -1.1945536248537947E-013
  -5.8399999999999994E-002    -7.4848569182883740E-013
  -5.7299999999999990E-002    -1.3236689305404226E-012
  -5.6199999999999986E-002    -1.0864732507762098E-012
  -5.5099999999999996E-002     7.0372890457678916E-013
  -5.3999999999999992E-002     3.8902600758838890E-012
  -5.2899999999999989E-002     6.5762304456151721E-012
  -5.1799999999999985E-002     5.3012707071364851E-012
  -5.0699999999999995E-002    -2.9087975517844145E-012
  -4.9599999999999991E-002    -1.6940336286519475E-011
  -4.8499999999999988E-002    -2.8672808918828174E-011
  -4.7399999999999998E-002    -2.4306010329433470E-011
  -4.6299999999999994E-002     7.5570253180168301E-012
  -4.5199999999999990E-002     6.2888784457815206E-011
  -4.4099999999999986E-002     1.1220622347929421E-010
  -4.2999999999999997E-002     1.0520215254494758E-010
  -4.1899999999999993E-002    -1.9543524784615407E-012
  -4.0799999999999989E-002    -2.0211905760181281E-010
  -3.9699999999999985E-002    -4.0030689874015479E-010
  -3.8599999999999995E-002    -4.2288064716622387E-010
  -3.7499999999999992E-002    -1.0292145607992964E-010
  -3.6399999999999988E-002     5.6940929749060842E-010
  -3.5299999999999984E-002     1.3092468220676778E-009
  -3.4199999999999994E-002     1.5440282385981163E-009
  -3.3099999999999991E-002     6.7808209047726109E-010
  -3.1999999999999987E-002    -1.4112310209313250E-009
  -3.0899999999999997E-002    -3.9036414101190076E-009
  -2.9799999999999993E-002    -5.0319708400081709E-009
  -2.8699999999999989E-002    -2.8995799095099528E-009
  -2.7599999999999986E-002     3.0053750599279283E-009
  -2.6499999999999996E-002     1.0441889131129756E-008
  -2.5399999999999992E-002     1.4484081489740674E-008
  -2.4299999999999988E-002     9.8833679018639486E-009
  -2.3199999999999985E-002    -4.8943777919419063E-009
  -2.2099999999999995E-002    -2.4376719309771033E-008
  -2.0999999999999991E-002    -3.6633107214356642E-008
  -1.9899999999999987E-002    -2.9116474564716555E-008
  -1.8799999999999983E-002     2.3808632843014266E-009
  -1.7699999999999994E-002     4.7185849894049170E-008
  -1.6599999999999990E-002     8.1278543007101689E-008
  -1.5499999999999986E-002     7.8323921570699895E-008
  -1.4399999999999996E-002     2.5303481976379771E-008
  -1.3299999999999992E-002    -6.5962773021510657E-008
  -1.2199999999999989E-002    -1.5826741162072722E-007
  -1.1099999999999985E-002    -2.0033996861457126E-007
  -9.9999999999999950E-003    -1.4612298571137217E-007
  -8.8999999999999913E-003     2.2155155932068737E-008
  -7.7999999999999875E-003     2.7018867854167183E-007
  -6.6999999999999837E-003     4.9526227030582959E-007
  -5.5999999999999939E-003     5.3791438858752372E-007
  -4.4999999999999901E-003     2.4749823523961823E-007
  -3.3999999999999864E-003    -3.9658914374740561E-007
  -2.2999999999999826E-003    -1.1650182614175719E-006
  -1.1999999999999927E-003    -1.5739445871076896E-006
  -9.9999999999988987E-005    -1.0959845440083882E-006
   1.0000000000000148E-003     4.4225993178770295E-007
   2.1000000000000185E-003     2.5017984626174439E-006
   3.2000000000000084E-003     3.8489652069984004E-006
   4.3000000000000121E-003     3.1498398129770067E-006
   5.4000000000000159E-003    -5.3691191936877658E-008
   6.5000000000000058E-003    -4.6037275751587003E-006
   7.6000000000000234E-003    -7.9174515121849254E-006
   8.7000000000000133E-003    -7.3202522798965219E-006
   9.8000000000000032E-003    -1.8897671907325275E-006
   1.0900000000000021E-002     6.4171927078859881E-006
   1.2000000000000011E-002     1.3351922461879440E-005
   1.3100000000000001E-002     1.4590136743208859E-005
   1.4200000000000018E-002     8.2783017205656506E-006
   1.5300000000000008E-002    -3.7405409329949180E-006
   1.6400000000000026E-002    -1.6752526789787225E-005
   1.7500000000000016E-002    -2.5281091438955627E-005
   1.8600000000000005E-002    -2.4964008844108321E-005
   1.9700000000000023E-002    -1.3454959116643295E-005
   2.0800000000000013E-002     8.8815186245483346E-006
   2.1900000000000003E-002     3.7302350392565131E-005
   2.3000000000000020E-002     6.0661321185762063E-005
   2.4100000000000010E-002     6.2333587266039103E-005
   2.5200000000000000E-002     2.7686965040629730E-005
   2.6300000000000018E-002    -4.2748939449666068E-005
   2.7400000000000008E-002    -1.2255212641321123E-004
   2.8500000000000025E-002    -1.6308356134686619E-004
   2.9600000000000015E-002    -1.1771368735935539E-004
   3.0700000000000005E-002     2.2325646568788216E-005
   3.1800000000000023E-002     2.0404577662702650E-004
   3.2900000000000013E-002     3.2502683461643755E-004
   3.4000000000000002E-002     2.8666053549386561E-004
   3.5100000000000020E-002     6.2573177274316549E-005
   3.6200000000000010E-002    -2.6298189186491072E-004
   3.7300000000000028E-002    -5.2161724306643009E-004
   3.8400000000000017E-002    -5.4789514979347587E-004
   3.9500000000000007E-002    -2.7943172608502209E-004
   4.0600000000000025E-002     1.9256686209701002E-004
   4.1700000000000015E-002     6.5714388620108366E-004
   4.2800000000000005E-002     8.8368257274851203E-004
   4.3900000000000022E-002     7.3058053385466337E-004
   4.5000000000000012E-002     2.0730560936499387E-004
   4.6100000000000002E-002    -5.2714184857904911E-004
   4.7200000000000020E-002    -1.2088868534192443E-003
   4.8300000000000010E-002    -1.5329151647165418E-003
   4.9400000000000027E-002    -1.2379875406622887E-003
   5.0500000000000017E-002    -2.2903965145815164E-004
   5.1600000000000007E-002     1.2823860161006451E-003
   5.2700000000000025E-002     2.7109878137707710E-003
   5.3800000000000014E-002     3.2308413647115231E-003
   5.4900000000000004E-002     2.1604222711175680E-003
   5.6000000000000022E-002    -5.3220463450998068E-004
   5.7100000000000012E-002    -3.9129126816987991E-003
   5.8200000000000002E-002    -6.2715881504118443E-003
   5.9300000000000019E-002    -5.8969208039343357E-003
   6.0400000000000009E-002    -2.1246229298412800E-003
   6.1500000000000027E-002     3.9416574873030186E-003
   6.2600000000000017E-002     9.5868762582540512E-003
   6.3700000000000007E-002     1.1635045520961285E-002
   6.4800000000000024E-002     8.1155868247151375E-003
   6.5900000000000014E-002    -4.2158889118582010E-004
   6.7000000000000004E-002    -1.0724378749728203E-002
   6.8100000000000022E-002    -1.8029808998107910E-002
   6.9200000000000012E-002    -1.8167171627283096E-002
   7.0300000000000029E-002    -9.6375932916998863E-003
   7.1400000000000019E-002     5.2827610634267330E-003
   7.2500000000000009E-002     2.0968057215213776E-002
   7.3600000000000027E-002     3.0357662588357925E-002
   7.4700000000000016E-002     2.7776561677455902E-002
   7.5800000000000006E-002     1.1707471683621407E-002
   7.6900000000000024E-002    -1.3587426394224167E-002
   7.8000000000000014E-002    -3.8555301725864410E-002
   7.9100000000000004E-002    -5.1363766193389893E-002
   8.0200000000000021E-002    -4.2858760803937912E-002
   8.1300000000000011E-002    -1.1720142327249050E-002
   8.2400000000000029E-002     3.2704904675483704E-002
   8.3500000000000019E-002     7.2099380195140839E-002
   8.4600000000000009E-002     8.5925348103046417E-002
   8.5700000000000026E-002     6.1162795871496201E-002
   8.6800000000000016E-002     7.4038532329723239E-004
   8.7900000000000006E-002    -7.4105925858020782E-002
   8.9000000000000024E-002   -0.13024502992630005
   9.0100000000000013E-002   -0.13648940622806549
   9.1200000000000003E-002    -7.9321227967739105E-002
   9.2300000000000021E-002     2.7098592370748520E-002
   9.3400000000000011E-002    0.14267873764038086
   9.4500000000000028E-002    0.21599633991718292
   9.5600000000000018E-002    0.20660725235939026
   9.6700000000000008E-002    0.10543565452098846
   9.7800000000000026E-002    -5.6690331548452377E-002
   9.8900000000000016E-002   -0.21784146130084991
  0.10000000000000001        -0.30912163853645325
  0.10110000000000002        -0.28484198451042175
  0.10220000000000001        -0.14567378163337708
  0.10330000000000003          5.6619431823492050E-002
  0.10440000000000002         0.23743011057376862
  0.10550000000000001         0.31541362404823303
  0.10660000000000003         0.25244757533073425
  0.10770000000000002          7.9160556197166443E-002
  0.10880000000000001        -0.10919574648141861
  0.10990000000000003        -0.19099324941635132
  0.11100000000000002         -7.9502515494823456E-002
  0.11210000000000001         0.21815408766269684
  0.11320000000000002         0.57523262500762939
  0.11430000000000001         0.77506881952285767
  0.11540000000000003         0.59633380174636841
  0.11650000000000002         -7.3977343738079071E-002
  0.11760000000000001         -1.1481424570083618
  0.11870000000000003         -2.3150215148925781
  0.11980000000000002         -3.1129562854766846
  0.12090000000000001         -3.0842859745025635
  0.12200000000000003         -1.9582734107971191
  0.12310000000000001         0.21027578413486481
  0.12420000000000003          3.0079803466796875
  0.12530000000000002          5.7572250366210938
  0.12640000000000001          7.7084226608276367
  0.12750000000000003          8.2601213455200195
  0.12860000000000002          7.1247348785400391
  0.12970000000000001          4.3796634674072266
  0.13080000000000003         0.39104068279266357
  0.13190000000000002         -4.3489084243774414
  0.13300000000000001         -9.3912925720214844
  0.13410000000000000         -14.420248985290527
  0.13520000000000004         -19.206230163574219
  0.13630000000000003         -23.425058364868164
  0.13740000000000002         -26.412450790405273
  0.13850000000000001         -26.972751617431641
  0.13960000000000000         -23.365495681762695
  0.14070000000000005         -13.541211128234863
  0.14180000000000004          4.4025764465332031
  0.14290000000000003          31.688741683959961
  0.14400000000000002          68.471992492675781
  0.14510000000000001          113.80929565429688
  0.14620000000000000          166.09669494628906
  0.14730000000000004          223.90135192871094
  0.14840000000000003          286.93859863281250
  0.14950000000000002          356.85205078125000
  0.15060000000000001          437.51019287109375
  0.15170000000000000          534.72912597656250
  0.15280000000000005          655.58117675781250
  0.15390000000000004          807.65026855468750
  0.15500000000000003          998.62500000000000
  0.15610000000000002          1236.4675292968750
  0.15720000000000001          1530.1264648437500
  0.15830000000000000          1890.5206298828125
  0.15940000000000004          2331.3969726562500
  0.16050000000000003          2869.7749023437500
  0.16160000000000002          3525.9116210937500
  0.16270000000000001          4322.9721679687500
  0.16380000000000000          5286.7895507812500
  0.16490000000000005          6446.0551757812500
  0.16600000000000004          7833.1108398437500
  0.16710000000000003          9485.2724609375000
  0.16820000000000002          11446.419921875000
  0.16930000000000001          13768.519531250000
  0.17040000000000000          16512.771484375000
  0.17150000000000004          19750.052734375000
  0.17260000000000003          23560.785156250000
  0.17370000000000002          28034.361328125000
  0.17480000000000001          33268.312500000000
  0.17590000000000000          39368.066406250000
  0.17700000000000005          46447.152343750000
  0.17810000000000004          54628.875000000000
  0.17920000000000003          64048.066406250000
  0.18030000000000002          74853.515625000000
  0.18140000000000001          87209.460937500000
  0.18250000000000000          101295.35937500000
  0.18360000000000004          117303.47656250000
  0.18470000000000003          135435.76562500000
  0.18580000000000002          155898.93750000000
  0.18690000000000001          178901.21875000000
  0.18800000000000000          204649.79687500000
  0.18910000000000005          233350.62500000000
  0.19020000000000004          265207.56250000000
  0.19130000000000003          300421.15625000000
  0.19240000000000002          339184.06250000000
  0.19350000000000001          381676.37500000000
  0.19460000000000005          428055.75000000000
  0.19570000000000004          478447.90625000000
  0.19680000000000003          532940.81250000000
  0.19790000000000002          591573.93750000000
  0.19900000000000001          654330.93750000000
  0.20010000000000000          721138.56250000000
  0.20120000000000005          791854.12500000000
  0.20230000000000004          866258.43750000000
  0.20340000000000003          944047.18750000000
  0.20450000000000002          1024824.0000000000
  0.20560000000000000          1108088.5000000000
  0.20670000000000005          1193233.7500000000
  0.20780000000000004          1279535.3750000000
  0.20890000000000003          1366155.5000000000
