 -0.12000000000000000          0.0000000000000000
 -0.11889999999999999          0.0000000000000000
 -0.11780000000000000          0.0000000000000000
 -0.11670000000000000          0.0000000000000000
 -0.11559999999999999          0.0000000000000000
 -0.11449999999999999          0.0000000000000000
 -0.11340000000000000          0.0000000000000000
 -0.11230000000000000          0.0000000000000000
 -0.11119999999999999          0.0000000000000000
 -0.11009999999999999         -5.7411764755177756E-031
 -0.10900000000000000          5.6548989517493423E-030
 -0.10790000000000000         -3.0819860046514445E-028
 -0.10679999999999999         -1.5156254956926043E-027
 -0.10569999999999999          5.7225479030843624E-028
 -0.10460000000000000          7.1385710428080641E-027
 -0.10349999999999999         -6.4375610468142872E-026
 -0.10239999999999999         -3.7186567806233778E-025
 -0.10130000000000000         -3.1106523452046311E-025
 -0.10020000000000000          2.7416908092610579E-024
  -9.9099999999999994E-002     9.1459271173875755E-024
  -9.7999999999999990E-002     9.0843466629737603E-025
  -9.6899999999999986E-002    -6.0601039423772656E-023
  -9.5799999999999996E-002    -1.4743073206950872E-022
  -9.4699999999999993E-002     7.2021880464192964E-024
  -9.3599999999999989E-002     8.0060698099088025E-022
  -9.2499999999999999E-002     1.7702398181296796E-021
  -9.1399999999999995E-002     2.2363961800590704E-022
  -9.0299999999999991E-002    -7.2556858288427735E-021
  -8.9200000000000002E-002    -1.6702569869164250E-020
  -8.8099999999999984E-002    -7.3758281582611322E-021
  -8.6999999999999994E-002     4.6852146436334241E-020
  -8.5899999999999990E-002     1.2474030978846268E-019
  -8.4799999999999986E-002     9.8478953851735019E-020
  -8.3699999999999997E-002    -2.0823289644045065E-019
  -8.2599999999999993E-002    -7.3554626807743925E-019
  -8.1499999999999989E-002    -8.4485244746082227E-019
  -8.0399999999999999E-002     4.8731691427336519E-019
  -7.9299999999999995E-002     3.3793531279713292E-018
  -7.8199999999999992E-002     5.2717473616632472E-018
  -7.7100000000000002E-002     1.1492016114296151E-018
  -7.5999999999999984E-002    -1.1577042009460476E-017
  -7.4899999999999994E-002    -2.5067002051176383E-017
  -7.3799999999999991E-002    -1.8863916734998350E-017
  -7.2699999999999987E-002     2.5081950859206442E-017
  -7.1599999999999997E-002     9.1443804248667445E-017
  -7.0499999999999993E-002     1.1205541796036988E-016
  -6.9399999999999989E-002     7.1685808669075841E-019
  -6.8300000000000000E-002    -2.4564127523942121E-016
  -6.7199999999999996E-002    -4.4892619149535830E-016
  -6.6099999999999992E-002    -2.9366581988725350E-016
  -6.5000000000000002E-002     4.0072464343132946E-016
  -6.3899999999999985E-002     1.3120010957377078E-015
  -6.2799999999999995E-002     1.5345511675740131E-015
  -6.1699999999999991E-002     1.5132084784020465E-016
  -6.0599999999999994E-002    -2.6720128659587367E-015
  -5.9499999999999990E-002    -4.9501939514433237E-015
  -5.8399999999999994E-002    -3.6644496065210783E-015
  -5.7299999999999990E-002     2.6437518234318337E-015
  -5.6199999999999986E-002     1.1060091204158611E-014
  -5.5099999999999996E-002     1.4253565504534355E-014
  -5.3999999999999992E-002     5.1860460404415474E-015
  -5.2899999999999989E-002    -1.5313034314960033E-014
  -5.1799999999999985E-002    -3.4290065497330838E-014
  -5.0699999999999995E-002    -3.2216793116731854E-014
  -4.9599999999999991E-002     1.5301645956984199E-015
  -4.8499999999999988E-002     5.3233672759602987E-014
  -4.7399999999999998E-002     8.4785687314275354E-014
  -4.6299999999999994E-002     5.7043772646019758E-014
  -4.5199999999999990E-002    -3.4319220371375331E-014
  -4.4099999999999986E-002    -1.3860287429497825E-013
  -4.2999999999999997E-002    -1.7141198399919788E-013
  -4.1899999999999993E-002    -7.5483361423357709E-014
  -4.0799999999999989E-002     1.1855540691958072E-013
  -3.9699999999999985E-002     2.8625241283233849E-013
  -3.8599999999999995E-002     2.8316081033749607E-013
  -3.7499999999999992E-002     6.0197344071283299E-014
  -3.6399999999999988E-002    -2.6721206085496274E-013
  -3.5299999999999984E-002    -4.6994450431797619E-013
  -3.4199999999999994E-002    -3.6536913902360246E-013
  -3.3099999999999991E-002     2.2523912192296512E-014
  -3.1999999999999987E-002     4.4068833868551871E-013
  -3.0899999999999997E-002     5.7311544832822081E-013
  -2.9799999999999993E-002     2.9286791633324760E-013
  -2.8699999999999989E-002    -2.0138670462147013E-013
  -2.7599999999999986E-002    -5.0802477459185869E-013
  -2.6499999999999996E-002    -3.4833106451331863E-013
  -2.5399999999999992E-002     1.5552160525112574E-013
  -2.4299999999999988E-002     5.1518771887471004E-013
  -2.3199999999999985E-002     2.6572182496888141E-013
  -2.2099999999999995E-002    -5.6216663268937594E-013
  -2.0999999999999991E-002    -1.3048880552479769E-012
  -1.9899999999999987E-002    -1.0874768967272797E-012
  -1.8799999999999983E-002     4.1586449995439922E-013
  -1.7699999999999994E-002     2.4647432532443059E-012
  -1.6599999999999990E-002     3.5087870109418162E-012
  -1.5499999999999986E-002     2.2252395238953060E-012
  -1.4399999999999996E-002    -1.3105625525783315E-012
  -1.3299999999999992E-002    -5.2439354941702376E-012
  -1.2199999999999989E-002    -6.8538699021791771E-012
  -1.1099999999999985E-002    -4.3539343137777298E-012
  -9.9999999999999950E-003     1.5989284549156046E-012
  -8.8999999999999913E-003     7.8689129864861762E-012
  -7.7999999999999875E-003     1.0558249587122592E-011
  -6.6999999999999837E-003     7.5045802905293613E-012
  -5.5999999999999939E-003    -1.0844767466856864E-013
  -4.4999999999999901E-003    -8.2384845473404411E-012
  -3.3999999999999864E-003    -1.2388551122455294E-011
  -2.2999999999999826E-003    -1.0373086070658566E-011
  -1.1999999999999927E-003    -3.5687917464971575E-012
  -9.9999999999988987E-005     4.1837843953174136E-012
   1.0000000000000148E-003     9.1707041266486655E-012
   2.1000000000000185E-003     9.9626695782006891E-012
   3.2000000000000084E-003     7.6306721358276874E-012
   4.3000000000000121E-003     4.1201894326881039E-012
   5.4000000000000159E-003     4.0358647955714144E-013
   6.5000000000000058E-003    -3.8431189654242193E-012
   7.6000000000000234E-003    -8.7594272113467042E-012
   8.7000000000000133E-003    -1.2599287065040432E-011
   9.8000000000000032E-003    -1.1944412472986166E-011
   1.0900000000000021E-002    -4.4459453479861466E-012
   1.2000000000000011E-002     7.8413065970894813E-012
   1.3100000000000001E-002     1.7821740611045911E-011
   1.4200000000000018E-002     1.7255138290428462E-011
   1.5300000000000008E-002     3.3615486696308983E-012
   1.6400000000000026E-002    -1.6798512234017515E-011
   1.7500000000000016E-002    -2.8715089334108157E-011
   1.8600000000000005E-002    -1.9679900070679324E-011
   1.9700000000000023E-002     1.0724590486510532E-011
   2.0800000000000013E-002     4.6953812365968517E-011
   2.1900000000000003E-002     6.5093909429325691E-011
   2.3000000000000020E-002     4.8190920004520521E-011
   2.4100000000000010E-002    -9.4185119772771664E-013
   2.5200000000000000E-002    -5.9503457716658659E-011
   2.6300000000000018E-002    -9.8896203726273058E-011
   2.7400000000000008E-002    -1.0404076211667501E-010
   2.8500000000000025E-002    -8.2983189764185283E-011
   2.9600000000000015E-002    -5.7483615090170304E-011
   3.0700000000000005E-002    -3.9512594585122685E-011
   3.1800000000000023E-002    -1.1779826246394176E-011
   3.2900000000000013E-002     6.8221379934119142E-011
   3.4000000000000002E-002     2.3528215487012005E-010
   3.5100000000000020E-002     4.7127224345189234E-010
   3.6200000000000010E-002     6.7913991097512394E-010
   3.7300000000000028E-002     7.0292377474245882E-010
   3.8400000000000017E-002     3.9601660839494457E-010
   3.9500000000000007E-002    -2.9086710817693984E-010
   4.0600000000000025E-002    -1.2478054145503847E-009
   4.1700000000000015E-002    -2.2066213301030757E-009
   4.2800000000000005E-002    -2.8099076399001888E-009
   4.3900000000000022E-002    -2.7182558426375181E-009
   4.5000000000000012E-002    -1.7091685844405902E-009
   4.6100000000000002E-002     2.6685811893578659E-010
   4.7200000000000020E-002     3.0758726676793913E-009
   4.8300000000000010E-002     6.4093299556589045E-009
   4.9400000000000027E-002     9.7798400489068626E-009
   5.0500000000000017E-002     1.2491987000373683E-008
   5.1600000000000007E-002     1.3608073778925700E-008
   5.2700000000000025E-002     1.1946867495282731E-008
   5.3800000000000014E-002     6.1425859954056250E-009
   5.4900000000000004E-002    -5.2439439457430126E-009
   5.6000000000000022E-002    -2.3607165999806057E-008
   5.7100000000000012E-002    -5.0231193426952814E-008
   5.8200000000000002E-002    -8.6317420766590658E-008
   5.9300000000000019E-002    -1.3310649649156403E-007
   6.0400000000000009E-002    -1.9206076729005872E-007
   6.1500000000000027E-002    -2.6506489803068689E-007
   6.2600000000000017E-002    -3.5462252867546340E-007
   6.3700000000000007E-002    -4.6405790499193245E-007
   6.4800000000000024E-002    -5.9774907867904403E-007
   6.5900000000000014E-002    -7.6140810278957360E-007
   6.7000000000000004E-002    -9.6239057256752858E-007
   6.8100000000000022E-002    -1.2099862942704931E-006
   6.9200000000000012E-002    -1.5156383597059175E-006
   7.0300000000000029E-002    -1.8930741134681739E-006
   7.1400000000000019E-002    -2.3583870643051341E-006
   7.2500000000000009E-002    -2.9301654649316333E-006
   7.3600000000000027E-002    -3.6297910810390022E-006
   7.4700000000000016E-002    -4.4820026232628152E-006
   7.5800000000000006E-002    -5.5157620408863295E-006
   7.6900000000000024E-002    -6.7653695623448584E-006
   7.8000000000000014E-002    -8.2717142504407093E-006
   7.9100000000000004E-002    -1.0083495908475015E-005
   8.0200000000000021E-002    -1.2258295100764371E-005
   8.1300000000000011E-002    -1.4863434444123413E-005
   8.2400000000000029E-002    -1.7976688468479551E-005
   8.3500000000000019E-002    -2.1686999389203265E-005
   8.4600000000000009E-002    -2.6095405701198615E-005
   8.5700000000000026E-002    -3.1316340027842671E-005
   8.6800000000000016E-002    -3.7479352613445371E-005
   8.7900000000000006E-002    -4.4731161324307323E-005
   8.9000000000000024E-002    -5.3237799875205383E-005
   9.0100000000000013E-002    -6.3186707848217338E-005
   9.1200000000000003E-002    -7.4788506026379764E-005
   9.2300000000000021E-002    -8.8278589828405529E-005
   9.3400000000000011E-002    -1.0391842806711793E-004
   9.4500000000000028E-002    -1.2199682532809675E-004
   9.5600000000000018E-002    -1.4283106429502368E-004
   9.6700000000000008E-002    -1.6676782979629934E-004
   9.7800000000000026E-002    -1.9418392912484705E-004
   9.8900000000000016E-002    -2.2548642300534993E-004
  0.10000000000000001         -2.6111237821169198E-004
  0.10110000000000002         -3.0152811086736619E-004
  0.10220000000000001         -3.4722799318842590E-004
  0.10330000000000003         -3.9873280911706388E-004
  0.10440000000000002         -4.5658732415176928E-004
  0.10550000000000001         -5.2135705482214689E-004
  0.10660000000000003         -5.9362355386838317E-004
  0.10770000000000002         -6.7397876409813762E-004
  0.10880000000000001         -7.6301762601360679E-004
  0.10990000000000003         -8.6133013246580958E-004
  0.11100000000000002         -9.6949184080585837E-004
  0.11210000000000001         -1.0880535701289773E-003
  0.11320000000000002         -1.2175297597423196E-003
  0.11430000000000001         -1.3583860127255321E-003
  0.11540000000000003         -1.5110245440155268E-003
  0.11650000000000002         -1.6757691046223044E-003
  0.11760000000000001         -1.8528492655605078E-003
  0.11870000000000003         -2.0423834212124348E-003
  0.11980000000000002         -2.2443623747676611E-003
  0.12090000000000001         -2.4586331564933062E-003
  0.12200000000000003         -2.6848814450204372E-003
  0.12310000000000001         -2.9226148035377264E-003
  0.12420000000000003         -3.1711473129689693E-003
  0.12530000000000002         -3.4295835066586733E-003
  0.12640000000000001         -3.6968062631785870E-003
  0.12750000000000003         -3.9714644663035870E-003
  0.12860000000000002         -4.2519653216004372E-003
  0.12970000000000001         -4.5364699326455593E-003
  0.13080000000000003         -4.8228912055492401E-003
  0.13190000000000002         -5.1088957116007805E-003
  0.13300000000000001         -5.3919097408652306E-003
  0.13410000000000000         -5.6691314093768597E-003
  0.13520000000000004         -5.9375436976552010E-003
  0.13630000000000003         -6.1939363367855549E-003
  0.13740000000000002         -6.4349323511123657E-003
  0.13850000000000001         -6.6570192575454712E-003
  0.13960000000000000         -6.8565844558179379E-003
  0.14070000000000005         -7.0299557410180569E-003
  0.14180000000000004         -7.1734464727342129E-003
  0.14290000000000003         -7.2834063321352005E-003
  0.14400000000000002         -7.3562716133892536E-003
  0.14510000000000001         -7.3886234313249588E-003
  0.14620000000000000         -7.3772440664470196E-003
  0.14730000000000004         -7.3191747069358826E-003
  0.14840000000000003         -7.2117759846150875E-003
  0.14950000000000002         -7.0527838543057442E-003
  0.15060000000000001         -6.8403654731810093E-003
  0.15170000000000000         -6.5731694921851158E-003
  0.15280000000000005         -6.2503735534846783E-003
  0.15390000000000004         -5.8717248030006886E-003
  0.15500000000000003         -5.4375738836824894E-003
  0.15610000000000002         -4.9489028751850128E-003
  0.15720000000000001         -4.4073392637073994E-003
  0.15830000000000000         -3.8151680491864681E-003
  0.15940000000000004         -3.1753280200064182E-003
  0.16050000000000003         -2.4914012756198645E-003
  0.16160000000000002         -1.7675888957455754E-003
  0.16270000000000001         -1.0086788097396493E-003
  0.16380000000000000         -2.2000164608471096E-004
  0.16490000000000005          5.9262331342324615E-004
  0.16600000000000004          1.4229515800252557E-003
  0.16710000000000003          2.2643853444606066E-003
  0.16820000000000002          3.1100525520741940E-003
  0.16930000000000001          3.9528920315206051E-003
  0.17040000000000000          4.7857430763542652E-003
  0.17150000000000004          5.6014382280409336E-003
  0.17260000000000003          6.3928994350135326E-003
  0.17370000000000002          7.1532311849296093E-003
  0.17480000000000001          7.8758131712675095E-003
  0.17590000000000000          8.5543897002935410E-003
  0.17700000000000005          9.1831553727388382E-003
  0.17810000000000004          9.7568286582827568E-003
  0.17920000000000003          1.0270725935697556E-002
  0.18030000000000002          1.0720821097493172E-002
  0.18140000000000001          1.1103792116045952E-002
  0.18250000000000000          1.1417061090469360E-002
  0.18360000000000004          1.1658819392323494E-002
  0.18470000000000003          1.1828042566776276E-002
  0.18580000000000002          1.1924494989216328E-002
  0.18690000000000001          1.1948714964091778E-002
  0.18800000000000000          1.1901997961103916E-002
  0.18910000000000005          1.1786359362304211E-002
  0.19020000000000004          1.1604495346546173E-002
  0.19130000000000003          1.1359727941453457E-002
  0.19240000000000002          1.1055944487452507E-002
  0.19350000000000001          1.0697531513869762E-002
  0.19460000000000005          1.0289298370480537E-002
  0.19570000000000004          9.8364027217030525E-003
  0.19680000000000003          9.3442685902118683E-003
  0.19790000000000002          8.8185071945190430E-003
  0.19900000000000001          8.2648312672972679E-003
  0.20010000000000000          7.6889838092029095E-003
  0.20120000000000005          7.0966556668281555E-003
  0.20230000000000004          6.4934175461530685E-003
  0.20340000000000003          5.8846510946750641E-003
  0.20450000000000002          5.2754888311028481E-003
  0.20560000000000000          4.6707610599696636E-003
  0.20670000000000005          4.0749460458755493E-003
  0.20780000000000004          3.4921336919069290E-003
  0.20890000000000003          2.9259910807013512E-003
