 -0.12000000000000000          0.0000000000000000
 -0.11889999999999999          0.0000000000000000
 -0.11780000000000000          0.0000000000000000
 -0.11670000000000000          0.0000000000000000
 -0.11559999999999999          0.0000000000000000
 -0.11449999999999999          0.0000000000000000
 -0.11340000000000000          0.0000000000000000
 -0.11230000000000000          0.0000000000000000
 -0.11119999999999999         -4.5102774147471094E-021
 -0.11009999999999999          2.2027221945047587E-020
 -0.10900000000000000         -5.0052359592285587E-020
 -0.10790000000000000         -1.1603483871716500E-018
 -0.10679999999999999         -1.5608726518898527E-018
 -0.10569999999999999          1.2539525381989415E-017
 -0.10460000000000000          4.1188681052302213E-017
 -0.10349999999999999         -3.4022927902318642E-017
 -0.10239999999999999         -3.9630514314991175E-016
 -0.10130000000000000         -5.5025049610740425E-016
 -0.10020000000000000          1.4506280960721227E-015
  -9.9099999999999994E-002     6.2359192381242559E-015
  -9.7999999999999990E-002     4.9966439677213287E-015
  -9.6899999999999986E-002    -2.0896036840418152E-014
  -9.5799999999999996E-002    -6.5833663932639286E-014
  -9.4699999999999993E-002    -4.2515727808993542E-014
  -9.3599999999999989E-002     1.8349952362727712E-013
  -9.2499999999999999E-002     5.2869422164855684E-013
  -9.1399999999999995E-002     3.6893358919092012E-013
  -9.0299999999999991E-002    -1.1246966899469690E-012
  -8.9200000000000002E-002    -3.4042890034724493E-012
  -8.8099999999999984E-002    -2.9280714138046893E-012
  -8.6999999999999994E-002     4.8946402486649276E-012
  -8.5899999999999990E-002     1.7884782196886384E-011
  -8.4799999999999986E-002     1.9445247495530893E-011
  -8.3699999999999997E-002    -1.3326368654420495E-011
  -8.2599999999999993E-002    -7.6510055235790020E-011
  -8.1499999999999989E-002    -1.0515838200220173E-010
  -8.0399999999999999E-002     2.0237737267253531E-012
  -7.9299999999999995E-002     2.6104846062580123E-010
  -7.8199999999999992E-002     4.6164813638505109E-010
  -7.7100000000000002E-002     2.1341642342243006E-010
  -7.5999999999999984E-002    -6.6829247691302385E-010
  -7.4899999999999994E-002    -1.6406968006421607E-009
  -7.3799999999999991E-002    -1.4118450852862452E-009
  -7.2699999999999987E-002     1.0166388841881258E-009
  -7.1599999999999997E-002     4.6490882255056931E-009
  -7.0499999999999993E-002     5.8729887619790588E-009
  -6.9399999999999989E-002     7.8098566502760036E-010
  -6.8300000000000000E-002    -1.0007768835862407E-008
  -6.7199999999999996E-002    -1.8174297622408631E-008
  -6.6099999999999992E-002    -1.1618889850240066E-008
  -6.5000000000000002E-002     1.3790812047886902E-008
  -6.3899999999999985E-002     4.3139753103105249E-008
  -6.2799999999999995E-002     4.5966462636215510E-008
  -6.1699999999999991E-002     4.5005121851460217E-010
  -6.0599999999999994E-002    -7.6049879282891197E-008
  -5.9499999999999990E-002    -1.2114206526803173E-007
  -5.8399999999999994E-002    -6.8143947373755509E-008
  -5.7299999999999990E-002     8.4490615392951440E-008
  -5.6199999999999986E-002     2.3524788161921606E-007
  -5.5099999999999996E-002     2.3136878724017151E-007
  -5.3999999999999992E-002     1.1633528584908959E-009
  -5.2899999999999989E-002    -3.3383423669874901E-007
  -5.1799999999999985E-002    -4.9412312819185900E-007
  -5.0699999999999995E-002    -2.5455165086896159E-007
  -4.9599999999999991E-002     3.0923101235202921E-007
  -4.8499999999999988E-002     7.7858368285887991E-007
  -4.7399999999999998E-002     6.7729928332482814E-007
  -4.6299999999999994E-002    -8.0750581332722504E-008
  -4.5199999999999990E-002    -9.7446229574416066E-007
  -4.4099999999999986E-002    -1.1880676993314410E-006
  -4.2999999999999997E-002    -3.1976111358744674E-007
  -4.1899999999999993E-002     1.0921479542957968E-006
  -4.0799999999999989E-002     1.8097880456480198E-006
  -3.9699999999999985E-002     9.0510530981191550E-007
  -3.8599999999999995E-002    -1.2259414461368578E-006
  -3.7499999999999992E-002    -2.8443228075047955E-006
  -3.6399999999999988E-002    -2.1578944142675027E-006
  -3.5299999999999984E-002     9.5571499514335301E-007
  -3.4199999999999994E-002     4.3307227315381169E-006
  -3.3099999999999991E-002     4.8862038966035470E-006
  -3.1999999999999987E-002     1.2155105650890619E-006
  -3.0899999999999997E-002    -4.7062221710802987E-006
  -2.9799999999999993E-002    -8.4510784290614538E-006
  -2.8699999999999989E-002    -6.4217729232041165E-006
  -2.7599999999999986E-002     9.6104224667215021E-007
  -2.6499999999999996E-002     8.9503027993487194E-006
  -2.5399999999999992E-002     1.1722669114533346E-005
  -2.4299999999999988E-002     6.8708295657415874E-006
  -2.3199999999999985E-002    -2.5025219656527042E-006
  -2.2099999999999995E-002    -1.0012914572143927E-005
  -2.0999999999999991E-002    -1.0925994502031244E-005
  -1.9899999999999987E-002    -5.7690999710757751E-006
  -1.8799999999999983E-002     4.6796770902801654E-007
  -1.7699999999999994E-002     2.9523462217184715E-006
  -1.6599999999999990E-002     1.4777658634557156E-006
  -1.5499999999999986E-002     7.0574628807662521E-007
  -1.4399999999999996E-002     5.5549348871863913E-006
  -1.3299999999999992E-002     1.5397645256598480E-005
  -1.2199999999999989E-002     2.2273501599556766E-005
  -1.1099999999999985E-002     1.5675985196139663E-005
  -9.9999999999999950E-003    -8.5972496890462935E-006
  -8.8999999999999913E-003    -4.1827472159639001E-005
  -7.7999999999999875E-003    -6.3900297391228378E-005
  -6.6999999999999837E-003    -5.4143158195074648E-005
  -5.5999999999999939E-003    -6.1849514167988673E-006
  -4.4999999999999901E-003     6.2662198615726084E-005
  -3.3999999999999864E-003     1.1572852963581681E-004
  -2.2999999999999826E-003     1.1594711395446211E-004
  -1.1999999999999927E-003     5.0298691348871216E-005
  -9.9999999999988987E-005    -5.5931126553332433E-005
   1.0000000000000148E-003    -1.4770423877052963E-004
   2.1000000000000185E-003    -1.7080578254535794E-004
   3.2000000000000084E-003    -1.0717012628447264E-004
   4.3000000000000121E-003     9.6427056632819586E-006
   5.4000000000000159E-003     1.1322298087179661E-004
   6.5000000000000058E-003     1.4803685189690441E-004
   7.6000000000000234E-003     1.0800264863064513E-004
   8.7000000000000133E-003     3.9651706174481660E-005
   9.8000000000000032E-003     3.9278061194636393E-006
   1.0900000000000021E-002     2.3439686628989875E-005
   1.2000000000000011E-002     5.7361285143997520E-005
   1.3100000000000001E-002     2.9128756068530492E-005
   1.4200000000000018E-002    -1.0758830467239022E-004
   1.5300000000000008E-002    -3.1215697526931763E-004
   1.6400000000000026E-002    -4.5678848982788622E-004
   1.7500000000000016E-002    -3.9429520256817341E-004
   1.8600000000000005E-002    -5.8016874390887097E-005
   1.9700000000000023E-002     4.6768601168878376E-004
   2.0800000000000013E-002     9.5536361914128065E-004
   2.1900000000000003E-002     1.1277097510173917E-003
   2.3000000000000020E-002     7.9680065391585231E-004
   2.4100000000000010E-002    -1.6657000742270611E-005
   2.5200000000000000E-002    -1.0469824774190784E-003
   2.6300000000000018E-002    -1.8623254727572203E-003
   2.7400000000000008E-002    -2.0417857449501753E-003
   2.8500000000000025E-002    -1.3820232124999166E-003
   2.9600000000000015E-002    -3.3181982871610671E-005
   3.0700000000000005E-002     1.5215727034956217E-003
   3.1800000000000023E-002     2.6599022094160318E-003
   3.2900000000000013E-002     2.9079632367938757E-003
   3.4000000000000002E-002     2.1741113159805536E-003
   3.5100000000000020E-002     7.9316325718536973E-004
   3.6200000000000010E-002    -6.5531540894880891E-004
   3.7300000000000028E-002    -1.6597692156210542E-003
   3.8400000000000017E-002    -2.0444288384169340E-003
   3.9500000000000007E-002    -2.0400858484208584E-003
   4.0600000000000025E-002    -2.1216364111751318E-003
   4.1700000000000015E-002    -2.7123016770929098E-003
   4.2800000000000005E-002    -3.9300513453781605E-003
   4.3900000000000022E-002    -5.5266944691538811E-003
   4.5000000000000012E-002    -7.0622297935187817E-003
   4.6100000000000002E-002    -8.2239136099815369E-003
   4.7200000000000020E-002    -9.1064414009451866E-003
   4.8300000000000010E-002    -1.0268710553646088E-002
   4.9400000000000027E-002    -1.2488129548728466E-002
   5.0500000000000017E-002    -1.6311379149556160E-002
   5.1600000000000007E-002    -2.1660452708601952E-002
   5.2700000000000025E-002    -2.7782607823610306E-002
   5.3800000000000014E-002    -3.3667024224996567E-002
   5.4900000000000004E-002    -3.8760621100664139E-002
   5.6000000000000022E-002    -4.3566640466451645E-002
   5.7100000000000012E-002    -4.9709912389516830E-002
   5.8200000000000002E-002    -5.9344097971916199E-002
   5.9300000000000019E-002    -7.4192233383655548E-002
   6.0400000000000009E-002    -9.4787023961544037E-002
   6.1500000000000027E-002   -0.12038165330886841
   6.2600000000000017E-002   -0.14959551393985748
   6.3700000000000007E-002   -0.18140466511249542
   6.4800000000000024E-002   -0.21589337289333344
   6.5900000000000014E-002   -0.25436830520629883
   6.7000000000000004E-002   -0.29888206720352173
   6.8100000000000022E-002   -0.35152339935302734
   6.9200000000000012E-002   -0.41396310925483704
   7.0300000000000029E-002   -0.48747146129608154
   7.1400000000000019E-002   -0.57328975200653076
   7.2500000000000009E-002   -0.67301583290100098
   7.3600000000000027E-002   -0.78866630792617798
   7.4700000000000016E-002   -0.92229580879211426
   7.5800000000000006E-002    -1.0754185914993286
   7.6900000000000024E-002    -1.2486279010772705
   7.8000000000000014E-002    -1.4418487548828125
   7.9100000000000004E-002    -1.6552042961120605
   8.0200000000000021E-002    -1.8901478052139282
   8.1300000000000011E-002    -2.1500885486602783
   8.2400000000000029E-002    -2.4399478435516357
   8.3500000000000019E-002    -2.7646210193634033
   8.4600000000000009E-002    -3.1270267963409424
   8.5700000000000026E-002    -3.5269100666046143
   8.6800000000000016E-002    -3.9613051414489746
   8.7900000000000006E-002    -4.4263024330139160
   8.9000000000000024E-002    -4.9194316864013672
   9.0100000000000013E-002    -5.4409265518188477
   9.1200000000000003E-002    -5.9931626319885254
   9.2300000000000021E-002    -6.5785336494445801
   9.3400000000000011E-002    -7.1972055435180664
   9.4500000000000028E-002    -7.8453979492187500
   9.5600000000000018E-002    -8.5149869918823242
   9.6700000000000008E-002    -9.1949872970581055
   9.7800000000000026E-002    -9.8737773895263672
   9.8900000000000016E-002    -10.540446281433105
  0.10000000000000001         -11.185854911804199
  0.10110000000000002         -11.801985740661621
  0.10220000000000001         -12.380617141723633
  0.10330000000000003         -12.910624504089355
  0.10440000000000002         -13.376954078674316
  0.10550000000000001         -13.760250091552734
  0.10660000000000003         -14.038557052612305
  0.10770000000000002         -14.189961433410645
  0.10880000000000001         -14.194800376892090
  0.10990000000000003         -14.034987449645996
  0.11100000000000002         -13.693701744079590
  0.11210000000000001         -13.155076026916504
  0.11320000000000002         -12.403880119323730
  0.11430000000000001         -11.425794601440430
  0.11540000000000003         -10.206898689270020
  0.11650000000000002         -8.7336359024047852
  0.11760000000000001         -6.9941325187683105
  0.11870000000000003         -4.9788031578063965
  0.11980000000000002         -2.6833367347717285
  0.12090000000000001        -0.11159627884626389
  0.12200000000000003          2.7262144088745117
  0.12310000000000001          5.8144397735595703
  0.12420000000000003          9.1309843063354492
  0.12530000000000002          12.650850296020508
  0.12640000000000001          16.344242095947266
  0.12750000000000003          20.178424835205078
  0.12860000000000002          24.116855621337891
  0.12970000000000001          28.114898681640625
  0.13080000000000003          32.127315521240234
  0.13190000000000002          36.096416473388672
  0.13300000000000001          39.955951690673828
  0.13410000000000000          43.643100738525391
  0.13520000000000004          47.089607238769531
  0.13630000000000003          50.227214813232422
  0.13740000000000002          52.989585876464844
  0.13850000000000001          55.314865112304688
  0.13960000000000000          57.147006988525391
  0.14070000000000005          58.431407928466797
  0.14180000000000004          59.115184783935547
  0.14290000000000003          59.151161193847656
  0.14400000000000002          58.499732971191406
  0.14510000000000001          57.128028869628906
  0.14620000000000000          55.015666961669922
  0.14730000000000004          52.153621673583984
  0.14840000000000003          48.543979644775391
  0.14950000000000002          44.199623107910156
  0.15060000000000001          39.150558471679688
  0.15170000000000000          33.440174102783203
  0.15280000000000005          27.123699188232422
  0.15390000000000004          20.266471862792969
  0.15500000000000003          12.940516471862793
  0.15610000000000002          5.2277474403381348
  0.15720000000000001         -2.7805180549621582
  0.15830000000000000         -10.983020782470703
  0.15940000000000004         -19.270204544067383
  0.16050000000000003         -27.529626846313477
  0.16160000000000002         -35.647312164306641
  0.16270000000000001         -43.507785797119141
  0.16380000000000000         -50.995948791503906
  0.16490000000000005         -57.997650146484375
  0.16600000000000004         -64.408493041992188
  0.16710000000000003         -70.131416320800781
  0.16820000000000002         -75.080123901367188
  0.16930000000000001         -79.179977416992188
  0.17040000000000000         -82.361755371093750
  0.17150000000000004         -84.570846557617188
  0.17260000000000003         -85.770095825195312
  0.17370000000000002         -85.935562133789062
  0.17480000000000001         -85.058258056640625
  0.17590000000000000         -83.144630432128906
  0.17700000000000005         -80.214775085449219
  0.17810000000000004         -76.303840637207031
  0.17920000000000003         -71.465705871582031
  0.18030000000000002         -65.768440246582031
  0.18140000000000001         -59.296348571777344
  0.18250000000000000         -52.136531829833984
  0.18360000000000004         -44.387058258056641
  0.18470000000000003         -36.151393890380859
  0.18580000000000002         -27.543437957763672
  0.18690000000000001         -18.685527801513672
  0.18800000000000000         -9.6994876861572266
  0.18910000000000005        -0.70612585544586182
  0.19020000000000004          8.1770582199096680
  0.19130000000000003          16.833627700805664
  0.19240000000000002          25.148218154907227
  0.19350000000000001          33.008956909179688
  0.19460000000000005          40.313800811767578
  0.19570000000000004          46.972290039062500
  0.19680000000000003          52.906215667724609
  0.19790000000000002          58.047340393066406
  0.19900000000000001          62.335605621337891
  0.20010000000000000          65.725860595703125
  0.20120000000000005          68.186538696289062
  0.20230000000000004          69.703399658203125
  0.20340000000000003          70.276023864746094
  0.20450000000000002          69.913917541503906
  0.20560000000000000          68.633384704589844
  0.20670000000000005          66.460494995117188
  0.20780000000000004          63.437149047851562
  0.20890000000000003          59.621444702148438
