 -0.12000000000000000          0.0000000000000000
 -0.11889999999999999          0.0000000000000000
 -0.11780000000000000          0.0000000000000000
 -0.11670000000000000          0.0000000000000000
 -0.11559999999999999          0.0000000000000000
 -0.11449999999999999          0.0000000000000000
 -0.11340000000000000          0.0000000000000000
 -0.11230000000000000         -8.6633242803835494E-020
 -0.11119999999999999         -4.1911812166565844E-019
 -0.11009999999999999         -5.4241890454373158E-020
 -0.10900000000000000          4.4136980230109656E-018
 -0.10790000000000000          1.1440914550413850E-017
 -0.10679999999999999         -7.6620871601143773E-018
 -0.10569999999999999         -1.0554810057797852E-016
 -0.10460000000000000         -2.3674930864760278E-016
 -0.10349999999999999         -3.9940955198882326E-017
 -0.10239999999999999          1.0578807295286955E-015
 -0.10130000000000000          2.7927845176441493E-015
 -0.10020000000000000          2.4629333708408533E-015
  -9.9099999999999994E-002    -4.5224224078056416E-015
  -9.7999999999999990E-002    -1.8546682540991101E-014
  -9.6899999999999986E-002    -2.6257643588188835E-014
  -9.5799999999999996E-002    -6.0844250661672193E-016
  -9.4699999999999993E-002     7.3290366017862013E-014
  -9.3599999999999989E-002     1.5235423057695374E-013
  -9.2499999999999999E-002     1.1896919267870981E-013
  -9.1399999999999995E-002    -1.3892401497846846E-013
  -9.0299999999999991E-002    -5.5205232746269317E-013
  -8.9200000000000002E-002    -7.4669448141967409E-013
  -8.8099999999999984E-002    -2.1099777740979375E-013
  -8.6999999999999994E-002     1.1740468623330780E-012
  -8.5899999999999990E-002     2.5883442524715639E-012
  -8.4799999999999986E-002     2.4038522908331750E-012
  -8.3699999999999997E-002    -5.8136671475181312E-013
  -8.2599999999999993E-002    -5.4073629254802746E-012
  -8.1499999999999989E-002    -8.3835317160607659E-012
  -8.0399999999999999E-002    -5.1745339783859645E-012
  -7.9299999999999995E-002     5.0318499367207892E-012
  -7.8199999999999992E-002     1.6555446250010597E-011
  -7.7100000000000002E-002     1.9339091092418492E-011
  -7.5999999999999984E-002     6.6517906634200319E-012
  -7.4899999999999994E-002    -1.6832932617227847E-011
  -7.3799999999999991E-002    -3.4698906942187691E-011
  -7.2699999999999987E-002    -2.9872194995395063E-011
  -7.1599999999999997E-002    -5.1770241739357292E-013
  -7.0499999999999993E-002     3.3481006161961702E-011
  -6.9399999999999989E-002     4.3384483505715110E-011
  -6.8300000000000000E-002     1.7366132837315362E-011
  -6.7199999999999996E-002    -2.2937728105798527E-011
  -6.6099999999999992E-002    -3.5413880161705436E-011
  -6.5000000000000002E-002     3.4199258008849043E-012
  -6.3899999999999985E-002     6.5152140626967281E-011
  -6.2799999999999995E-002     7.9328314750437556E-011
  -6.1699999999999991E-002    -7.6516700961426487E-012
  -6.0599999999999994E-002    -1.6673082359197622E-010
  -5.9499999999999990E-002    -2.7726210216627578E-010
  -5.8399999999999994E-002    -2.0422416535659238E-010
  -5.7299999999999990E-002     8.2473076978839543E-011
  -5.6199999999999986E-002     4.4302067570001213E-010
  -5.5099999999999996E-002     6.3009902850907906E-010
  -5.3999999999999992E-002     4.5644382717924259E-010
  -5.2899999999999989E-002    -4.9949339803179171E-011
  -5.1799999999999985E-002    -6.3061689203891547E-010
  -5.0699999999999995E-002    -9.5130192612202791E-010
  -4.9599999999999991E-002    -8.2157508574098870E-010
  -4.8499999999999988E-002    -3.1514621467998438E-010
  -4.7399999999999998E-002     2.9958441283284287E-010
  -4.6299999999999994E-002     7.5701439561370876E-010
  -4.5199999999999990E-002     9.5527419308183426E-010
  -4.4099999999999986E-002     9.5373464681358655E-010
  -4.2999999999999997E-002     8.2913642618365202E-010
  -4.1899999999999993E-002     5.4240184566012317E-010
  -4.0799999999999989E-002    -3.8974160704308147E-011
  -3.9699999999999985E-002    -9.6168784047279132E-010
  -3.8599999999999995E-002    -2.0056480920516151E-009
  -3.7499999999999992E-002    -2.6850981438286681E-009
  -3.6399999999999988E-002    -2.4834256873162985E-009
  -3.5299999999999984E-002    -1.1846585934449649E-009
  -3.4199999999999994E-002     9.2643515081647365E-010
  -3.3099999999999991E-002     3.1433002867231608E-009
  -3.1999999999999987E-002     4.6547770082838724E-009
  -3.0899999999999997E-002     4.9058885842612199E-009
  -2.9799999999999993E-002     3.7944758446428750E-009
  -2.8699999999999989E-002     1.6186537665774381E-009
  -2.7599999999999986E-002    -1.1478298311828894E-009
  -2.6499999999999996E-002    -4.0815493207446707E-009
  -2.5399999999999992E-002    -6.8896857108313725E-009
  -2.4299999999999988E-002    -9.3127239253476546E-009
  -2.3199999999999985E-002    -1.0948929762832904E-008
  -2.2099999999999995E-002    -1.1163731272745281E-008
  -2.0999999999999991E-002    -9.1903418208971743E-009
  -1.9899999999999987E-002    -4.3667127691549013E-009
  -1.8799999999999983E-002     3.7105805095194455E-009
  -1.7699999999999994E-002     1.5358949667643174E-008
  -1.6599999999999990E-002     3.1358002416936870E-008
  -1.5499999999999986E-002     5.3600654581487106E-008
  -1.4399999999999996E-002     8.5369656233069691E-008
  -1.3299999999999992E-002     1.3090144079797028E-007
  -1.2199999999999989E-002     1.9437281650880323E-007
  -1.1099999999999985E-002     2.7894287768504000E-007
  -9.9999999999999950E-003     3.8659226220261189E-007
  -8.8999999999999913E-003     5.1905630016335635E-007
  -7.7999999999999875E-003     6.7941715542474412E-007
  -6.6999999999999837E-003     8.7345313204423292E-007
  -5.5999999999999939E-003     1.1100310075562447E-006
  -4.4999999999999901E-003     1.4005580624143477E-006
  -3.3999999999999864E-003     1.7582294731255388E-006
  -2.2999999999999826E-003     2.1979394659865648E-006
  -1.1999999999999927E-003     2.7371809210308129E-006
  -9.9999999999988987E-005     3.3974858979490818E-006
   1.0000000000000148E-003     4.2055894482473377E-006
   2.1000000000000185E-003     5.1938059186795726E-006
   3.2000000000000084E-003     6.3998172663559671E-006
   4.3000000000000121E-003     7.8665898399776779E-006
   5.4000000000000159E-003     9.6430694611626677E-006
   6.5000000000000058E-003     1.1785778951889370E-005
   7.6000000000000234E-003     1.4360896784637589E-005
   8.7000000000000133E-003     1.7446243873564526E-005
   9.8000000000000032E-003     2.1132871552254073E-005
   1.0900000000000021E-002     2.5526373065076768E-005
   1.2000000000000011E-002     3.0748284189030528E-005
   1.3100000000000001E-002     3.6937850381946191E-005
   1.4200000000000018E-002     4.4254236854612827E-005
   1.5300000000000008E-002     5.2878909627906978E-005
   1.6400000000000026E-002     6.3017927459441125E-005
   1.7500000000000016E-002     7.4903917266055942E-005
   1.8600000000000005E-002     8.8797838543541729E-005
   1.9700000000000023E-002     1.0499070049263537E-004
   2.0800000000000013E-002     1.2380564294289798E-004
   2.1900000000000003E-002     1.4560064300894737E-004
   2.3000000000000020E-002     1.7077167285606265E-004
   2.4100000000000010E-002     1.9975542090833187E-004
   2.5200000000000000E-002     2.3303113994188607E-004
   2.6300000000000018E-002     2.7112098177894950E-004
   2.7400000000000008E-002     3.1458926969207823E-004
   2.8500000000000025E-002     3.6404139245860279E-004
   2.9600000000000015E-002     4.2012319318018854E-004
   3.0700000000000005E-002     4.8352041631005704E-004
   3.1800000000000023E-002     5.5495806736871600E-004
   3.2900000000000013E-002     6.3519843388348818E-004
   3.4000000000000002E-002     7.2503712726756930E-004
   3.5100000000000020E-002     8.2529743667691946E-004
   3.6200000000000010E-002     9.3682238366454840E-004
   3.7300000000000028E-002     1.0604659328237176E-003
   3.8400000000000017E-002     1.1970819905400276E-003
   3.9500000000000007E-002     1.3475125888362527E-003
   4.0600000000000025E-002     1.5125748468562961E-003
   4.1700000000000015E-002     1.6930464189499617E-003
   4.2800000000000005E-002     1.8896503606811166E-003
   4.3900000000000022E-002     2.1030390635132790E-003
   4.5000000000000012E-002     2.3337753955274820E-003
   4.6100000000000002E-002     2.5823146570473909E-003
   4.7200000000000020E-002     2.8489811811596155E-003
   4.8300000000000010E-002     3.1339463312178850E-003
   4.9400000000000027E-002     3.4372063819319010E-003
   5.0500000000000017E-002     3.7585583049803972E-003
   5.1600000000000007E-002     4.0975790470838547E-003
   5.2700000000000025E-002     4.4536050409078598E-003
   5.3800000000000014E-002     4.8257121816277504E-003
   5.4900000000000004E-002     5.2126999944448471E-003
   5.6000000000000022E-002     5.6130783632397652E-003
   5.7100000000000012E-002     6.0250577516853809E-003
   5.8200000000000002E-002     6.4465366303920746E-003
   5.9300000000000019E-002     6.8750949576497078E-003
   6.0400000000000009E-002     7.3079955764114857E-003
   6.1500000000000027E-002     7.7421851456165314E-003
   6.2600000000000017E-002     8.1743057817220688E-003
   6.3700000000000007E-002     8.6007127538323402E-003
   6.4800000000000024E-002     9.0174954384565353E-003
   6.5900000000000014E-002     9.4205047935247421E-003
   6.7000000000000004E-002     9.8053943365812302E-003
   6.8100000000000022E-002     1.0167655535042286E-002
   6.9200000000000012E-002     1.0502666234970093E-002
   7.0300000000000029E-002     1.0805743746459484E-002
   7.1400000000000019E-002     1.1072194203734398E-002
   7.2500000000000009E-002     1.1297372169792652E-002
   7.3600000000000027E-002     1.1476751416921616E-002
   7.4700000000000016E-002     1.1605991981923580E-002
   7.5800000000000006E-002     1.1681006290018559E-002
   7.6900000000000024E-002     1.1698034591972828E-002
   7.8000000000000014E-002     1.1653704568743706E-002
   7.9100000000000004E-002     1.1545098386704922E-002
   8.0200000000000021E-002     1.1369816958904266E-002
   8.1300000000000011E-002     1.1126033961772919E-002
   8.2400000000000029E-002     1.0812550783157349E-002
   8.3500000000000019E-002     1.0428838431835175E-002
   8.4600000000000009E-002     9.9750645458698273E-003
   8.5700000000000026E-002     9.4521176069974899E-003
   8.6800000000000016E-002     8.8616227731108665E-003
   8.7900000000000006E-002     8.2059409469366074E-003
   8.9000000000000024E-002     7.4881645850837231E-003
   9.0100000000000013E-002     6.7120897583663464E-003
   9.1200000000000003E-002     5.8821826241910458E-003
   9.2300000000000021E-002     5.0035272724926472E-003
   9.3400000000000011E-002     4.0817656554281712E-003
   9.4500000000000028E-002     3.1230282038450241E-003
   9.5600000000000018E-002     2.1338583901524544E-003
   9.6700000000000008E-002     1.1211206438019872E-003
   9.7800000000000026E-002     9.1898880782537162E-005
   9.8900000000000016E-002    -9.4660645117983222E-004
  0.10000000000000001         -1.9871850963681936E-003
  0.10110000000000002         -3.0227217357605696E-003
  0.10220000000000001         -4.0463027544319630E-003
  0.10330000000000003         -5.0513236783444881E-003
  0.10440000000000002         -6.0315947048366070E-003
  0.10550000000000001         -6.9814347662031651E-003
  0.10660000000000003         -7.8957583755254745E-003
  0.10770000000000002         -8.7701510637998581E-003
  0.10880000000000001         -9.6009345725178719E-003
  0.10990000000000003         -1.0385217145085335E-002
  0.11100000000000002         -1.1120938695967197E-002
  0.11210000000000001         -1.1806893162429333E-002
  0.11320000000000002         -1.2442733161151409E-002
  0.11430000000000001         -1.3028956018388271E-002
  0.11540000000000003         -1.3566869311034679E-002
  0.11650000000000002         -1.4058556407690048E-002
  0.11760000000000001         -1.4506816864013672E-002
  0.11870000000000003         -1.4915101230144501E-002
  0.11980000000000002         -1.5287419781088829E-002
  0.12090000000000001         -1.5628237277269363E-002
  0.12200000000000003         -1.5942363068461418E-002
  0.12310000000000001         -1.6234830021858215E-002
  0.12420000000000003         -1.6510782763361931E-002
  0.12530000000000002         -1.6775341704487801E-002
  0.12640000000000001         -1.7033481970429420E-002
  0.12750000000000003         -1.7289888113737106E-002
  0.12860000000000002         -1.7548827454447746E-002
  0.12970000000000001         -1.7814027145504951E-002
  0.13080000000000003         -1.8088569864630699E-002
  0.13190000000000002         -1.8374789506196976E-002
  0.13300000000000001         -1.8674185499548912E-002
  0.13410000000000000         -1.8987331539392471E-002
  0.13520000000000004         -1.9313814118504524E-002
  0.13630000000000003         -1.9652191549539566E-002
  0.13740000000000002         -1.9999975338578224E-002
  0.13850000000000001         -2.0353637635707855E-002
  0.13960000000000000         -2.0708614960312843E-002
  0.14070000000000005         -2.1059347316622734E-002
  0.14180000000000004         -2.1399321034550667E-002
  0.14290000000000003         -2.1721160039305687E-002
  0.14400000000000002         -2.2016735747456551E-002
  0.14510000000000001         -2.2277290001511574E-002
  0.14620000000000000         -2.2493561729788780E-002
  0.14730000000000004         -2.2655932232737541E-002
  0.14840000000000003         -2.2754581645131111E-002
  0.14950000000000002         -2.2779678925871849E-002
  0.15060000000000001         -2.2721564397215843E-002
  0.15170000000000000         -2.2570939734578133E-002
  0.15280000000000005         -2.2319057956337929E-002
  0.15390000000000004         -2.1957898512482643E-002
  0.15500000000000003         -2.1480347961187363E-002
  0.15610000000000002         -2.0880367606878281E-002
  0.15720000000000001         -2.0153164863586426E-002
  0.15830000000000000         -1.9295345991849899E-002
  0.15940000000000004         -1.8305033445358276E-002
  0.16050000000000003         -1.7181968316435814E-002
  0.16160000000000002         -1.5927575528621674E-002
  0.16270000000000001         -1.4545017853379250E-002
  0.16380000000000000         -1.3039230369031429E-002
  0.16490000000000005         -1.1416925117373466E-002
  0.16600000000000004         -9.6865491941571236E-003
  0.16710000000000003         -7.8582158312201500E-003
  0.16820000000000002         -5.9436010196805000E-003
  0.16930000000000001         -3.9558224380016327E-003
  0.17040000000000000         -1.9092955626547337E-003
  0.17150000000000004          1.8043264572042972E-004
  0.17260000000000003          2.2968782577663660E-003
  0.17370000000000002          4.4228383339941502E-003
  0.17480000000000001          6.5406239591538906E-003
  0.17590000000000000          8.6323013529181480E-003
  0.17700000000000005          1.0679924860596657E-002
  0.17810000000000004          1.2665783986449242E-002
  0.17920000000000003          1.4572644606232643E-002
  0.18030000000000002          1.6383992508053780E-002
  0.18140000000000001          1.8084257841110229E-002
  0.18250000000000000          1.9659033045172691E-002
  0.18360000000000004          2.1095260977745056E-002
  0.18470000000000003          2.2381396964192390E-002
  0.18580000000000002          2.3507557809352875E-002
  0.18690000000000001          2.4465637281537056E-002
  0.18800000000000000          2.5249408558011055E-002
  0.18910000000000005          2.5854578241705894E-002
  0.19020000000000004          2.6278808712959290E-002
  0.19130000000000003          2.6521727442741394E-002
  0.19240000000000002          2.6584889739751816E-002
  0.19350000000000001          2.6471721008419991E-002
  0.19460000000000005          2.6187442243099213E-002
  0.19570000000000004          2.5738948956131935E-002
  0.19680000000000003          2.5134686380624771E-002
  0.19790000000000002          2.4384500458836555E-002
  0.19900000000000001          2.3499472066760063E-002
  0.20010000000000000          2.2491740062832832E-002
  0.20120000000000005          2.1374313160777092E-002
  0.20230000000000004          2.0160885527729988E-002
  0.20340000000000003          1.8865641206502914E-002
  0.20450000000000002          1.7503062263131142E-002
  0.20560000000000000          1.6087742522358894E-002
  0.20670000000000005          1.4634216204285622E-002
  0.20780000000000004          1.3156788423657417E-002
  0.20890000000000003          1.1669375933706760E-002
