 -0.12000000000000000          0.0000000000000000
 -0.11889999999999999          0.0000000000000000
 -0.11780000000000000          0.0000000000000000
 -0.11670000000000000          0.0000000000000000
 -0.11559999999999999          0.0000000000000000
 -0.11449999999999999          0.0000000000000000
 -0.11340000000000000          0.0000000000000000
 -0.11230000000000000          0.0000000000000000
 -0.11119999999999999          0.0000000000000000
 -0.11009999999999999          0.0000000000000000
 -0.10900000000000000          0.0000000000000000
 -0.10790000000000000          1.0893719974239142E-026
 -0.10679999999999999          1.1042259000610919E-024
 -0.10569999999999999          6.2965224791144724E-024
 -0.10460000000000000          8.3358988652689493E-023
 -0.10349999999999999          5.9673932222633472E-022
 -0.10239999999999999          1.6222221483031375E-021
 -0.10130000000000000          4.9038981552809475E-022
 -0.10020000000000000         -4.5938644599320547E-022
  -9.9099999999999994E-002     3.8468467364130435E-020
  -9.7999999999999990E-002     1.3265005637493909E-019
  -9.6899999999999986E-002    -1.3607607045107180E-019
  -9.5799999999999996E-002    -1.6698033429739250E-018
  -9.4699999999999993E-002    -2.6277844748263144E-018
  -9.3599999999999989E-002     7.3657588046539932E-018
  -9.2499999999999999E-002     3.5559081709168419E-017
  -9.1399999999999995E-002     2.9512100263830168E-017
  -9.0299999999999991E-002    -1.5636609371140649E-016
  -8.9200000000000002E-002    -5.1385947253407695E-016
  -8.8099999999999984E-002    -2.6148121486955025E-016
  -8.6999999999999994E-002     2.0874798759815171E-015
  -8.5899999999999990E-002     5.7487901666418342E-015
  -8.4799999999999986E-002     2.5246007575327554E-015
  -8.3699999999999997E-002    -2.0114310133397158E-014
  -8.2599999999999993E-002    -5.2726147558267156E-014
  -8.1499999999999989E-002    -2.7846013323407255E-014
  -8.0399999999999999E-002     1.4780911954462295E-013
  -7.9299999999999995E-002     4.0561645838974036E-013
  -7.8199999999999992E-002     2.8708570351705653E-013
  -7.7100000000000002E-002    -8.3746220678679317E-013
  -7.5999999999999984E-002    -2.6347960271899673E-012
  -7.4899999999999994E-002    -2.4688252744237138E-012
  -7.3799999999999991E-002     3.5100574790475347E-012
  -7.2699999999999987E-002     1.4430258203634860E-011
  -7.1599999999999997E-002     1.7365666196700325E-011
  -7.0499999999999993E-002    -8.7613657648311083E-012
  -6.9399999999999989E-002    -6.6037154911047224E-011
  -6.8300000000000000E-002    -1.0066161099109294E-010
  -6.7199999999999996E-002    -1.0450426982111516E-011
  -6.6099999999999992E-002     2.4676596876993528E-010
  -6.5000000000000002E-002     4.8498027815924161E-010
  -6.3899999999999985E-002     2.6969604327575780E-010
  -6.2799999999999995E-002    -7.0803857221690691E-010
  -6.1699999999999991E-002    -1.9453800792490483E-009
  -6.0599999999999994E-002    -1.8375935217918027E-009
  -5.9499999999999990E-002     1.2357602718893190E-009
  -5.8399999999999994E-002     6.4267049459942882E-009
  -5.7299999999999990E-002     8.6618019423667647E-009
  -5.6199999999999986E-002     1.1249497999799019E-009
  -5.5099999999999996E-002    -1.6843966221813389E-008
  -5.3999999999999992E-002    -3.1905344144433911E-008
  -5.2899999999999989E-002    -2.0189341753962253E-008
  -5.1799999999999985E-002     3.0962045372007196E-008
  -5.0699999999999995E-002     9.4419064566864108E-008
  -4.9599999999999991E-002     9.9866433345141559E-008
  -4.8499999999999988E-002    -1.5820818433098793E-008
  -4.7399999999999998E-002    -2.2066680571697361E-007
  -4.6299999999999994E-002    -3.4197657328149944E-007
  -4.5199999999999990E-002    -1.5808937803285517E-007
  -4.4099999999999986E-002     3.7098928373779927E-007
  -4.2999999999999997E-002     9.0493500692900852E-007
  -4.1899999999999993E-002     8.2448656257838593E-007
  -4.0799999999999989E-002    -2.5597458375159476E-007
  -3.9699999999999985E-002    -1.8636379763847799E-006
  -3.8599999999999995E-002    -2.5816295874392381E-006
  -3.7499999999999992E-002    -9.8561770300875651E-007
  -3.6399999999999988E-002     2.7648088689602446E-006
  -3.5299999999999984E-002     6.0451143326645251E-006
  -3.4199999999999994E-002     5.0464800551708322E-006
  -3.3099999999999991E-002    -1.8355472093389835E-006
  -3.1999999999999987E-002    -1.0934450074273627E-005
  -3.0899999999999997E-002    -1.4100978660280816E-005
  -2.9799999999999993E-002    -4.7323824219347443E-006
  -2.8699999999999989E-002     1.4456827557296492E-005
  -2.7599999999999986E-002     2.9222666853456758E-005
  -2.6499999999999996E-002     2.2436934159486555E-005
  -2.5399999999999992E-002    -9.8256814453634433E-006
  -2.4299999999999988E-002    -4.7735946282045916E-005
  -2.3199999999999985E-002    -5.6340351875405759E-005
  -2.2099999999999995E-002    -1.3724057680519763E-005
  -2.0999999999999991E-002     6.0946011217311025E-005
  -1.9899999999999987E-002     1.0813047265401110E-004
  -1.8799999999999983E-002     6.9596862886101007E-005
  -1.7699999999999994E-002    -5.2973602578276768E-005
  -1.6599999999999990E-002    -1.7410899454262108E-004
  -1.5499999999999986E-002    -1.7410417785868049E-004
  -1.4399999999999996E-002    -3.2382831705035642E-006
  -1.3299999999999992E-002     2.4049531202763319E-004
  -1.2199999999999989E-002     3.4785666503012180E-004
  -1.1099999999999985E-002     1.5868042828515172E-004
  -9.9999999999999950E-003    -2.6248997892253101E-004
  -8.8999999999999913E-003    -6.0089991893619299E-004
  -7.7999999999999875E-003    -4.9822422442957759E-004
  -6.6999999999999837E-003     1.2081848399247974E-004
  -5.5999999999999939E-003     8.7058159988373518E-004
  -4.4999999999999901E-003     1.0984386317431927E-003
  -3.3999999999999864E-003     3.9917114190757275E-004
  -2.2999999999999826E-003    -9.2155364109203219E-004
  -1.1999999999999927E-003    -1.8835994414985180E-003
  -9.9999999999988987E-005    -1.5006591565907001E-003
   1.0000000000000148E-003     3.2899010693654418E-004
   2.1000000000000185E-003     2.4515616241842508E-003
   3.2000000000000084E-003     3.1021216418594122E-003
   4.3000000000000121E-003     1.2869205093011260E-003
   5.4000000000000159E-003    -2.1199756301939487E-003
   6.5000000000000058E-003    -4.6237800270318985E-003
   7.6000000000000234E-003    -3.8508225698024035E-003
   8.7000000000000133E-003     3.5265876795165241E-004
   9.8000000000000032E-003     5.2204402163624763E-003
   1.0900000000000021E-002     6.7404857836663723E-003
   1.2000000000000011E-002     2.8351990040391684E-003
   1.3100000000000001E-002    -4.3627847917377949E-003
   1.4200000000000018E-002    -9.3533601611852646E-003
   1.5300000000000008E-002    -7.2554075159132481E-003
   1.6400000000000026E-002     1.7804839881137013E-003
   1.7500000000000016E-002     1.1478125117719173E-002
   1.8600000000000005E-002     1.3414551503956318E-002
   1.9700000000000023E-002     3.8382147904485464E-003
   2.0800000000000013E-002    -1.1896252632141113E-002
   2.1900000000000003E-002    -2.1676706150174141E-002
   2.3000000000000020E-002    -1.5367372892796993E-002
   2.4100000000000010E-002     6.0262461192905903E-003
   2.5200000000000000E-002     2.8451533988118172E-002
   2.6300000000000018E-002     3.3447537571191788E-002
   2.7400000000000008E-002     1.2466586194932461E-002
   2.8500000000000025E-002    -2.3800805211067200E-002
   2.9600000000000015E-002    -4.9891088157892227E-002
   3.0700000000000005E-002    -4.3022960424423218E-002
   3.1800000000000023E-002    -1.8896325491368771E-003
   3.2900000000000013E-002     4.8218253999948502E-002
   3.4000000000000002E-002     7.0619054138660431E-002
   3.5100000000000020E-002     4.4113643467426300E-002
   3.6200000000000010E-002    -1.8074052408337593E-002
   3.7300000000000028E-002    -7.3695868253707886E-002
   3.8400000000000017E-002    -8.0540731549263000E-002
   3.9500000000000007E-002    -2.9265023767948151E-002
   4.0600000000000025E-002     4.5801021158695221E-002
   4.1700000000000015E-002     8.9338161051273346E-002
   4.2800000000000005E-002     6.6906102001667023E-002
   4.3900000000000022E-002    -5.8800536207854748E-003
   4.5000000000000012E-002    -7.2278134524822235E-002
   4.6100000000000002E-002    -7.8285902738571167E-002
   4.7200000000000020E-002    -1.8432777374982834E-002
   4.8300000000000010E-002     5.5491741746664047E-002
   4.9400000000000027E-002     7.5112752616405487E-002
   5.0500000000000017E-002     1.6440372914075851E-002
   5.1600000000000007E-002    -7.0643998682498932E-002
   5.2700000000000025E-002    -9.6963949501514435E-002
   5.3800000000000014E-002    -1.3429421000182629E-002
   5.4900000000000004E-002    0.12896654009819031
   5.6000000000000022E-002    0.19949246942996979
   5.7100000000000012E-002     9.0486936271190643E-002
   5.8200000000000002E-002   -0.16993743181228638
   5.9300000000000019E-002   -0.39610582590103149
   6.0400000000000009E-002   -0.36067667603492737
   6.1500000000000027E-002     1.4118597842752934E-002
   6.2600000000000017E-002    0.53555399179458618
   6.3700000000000007E-002    0.81530821323394775
   6.4800000000000024E-002    0.53371584415435791
   6.5900000000000014E-002   -0.27354159951210022
   6.7000000000000004E-002    -1.1360683441162109
   6.8100000000000022E-002    -1.3971493244171143
   6.9200000000000012E-002   -0.67745560407638550
   7.0300000000000029E-002    0.75639820098876953
   7.1400000000000019E-002     2.0277030467987061
   7.2500000000000009E-002     2.1572625637054443
   7.3600000000000027E-002    0.76516109704971313
   7.4700000000000016E-002    -1.5152547359466553
   7.5800000000000006E-002    -3.2753355503082275
   7.6900000000000024E-002    -3.1749646663665771
   7.8000000000000014E-002   -0.89722043275833130
   7.9100000000000004E-002     2.4453659057617188
   8.0200000000000021E-002     4.8278326988220215
   8.1300000000000011E-002     4.5343890190124512
   8.2400000000000029E-002     1.3448150157928467
   8.3500000000000019E-002    -3.1246273517608643
   8.4600000000000009E-002    -6.2536907196044922
   8.5700000000000026E-002    -5.9932174682617188
   8.6800000000000016E-002    -2.2138960361480713
   8.7900000000000006E-002     3.0698268413543701
   8.9000000000000024E-002     6.8219175338745117
   9.0100000000000013E-002     6.8073353767395020
   9.1200000000000003E-002     2.9836926460266113
   9.2300000000000021E-002    -2.4332633018493652
   9.3400000000000011E-002    -6.2992219924926758
   9.4500000000000028E-002    -6.4471621513366699
   9.5600000000000018E-002    -2.9805738925933838
   9.6700000000000008E-002     1.8462970256805420
   9.7800000000000026E-002     5.0695900917053223
   9.8900000000000016E-002     4.8686766624450684
  0.10000000000000001          1.6897133588790894
  0.10110000000000002         -2.0259091854095459
  0.10220000000000001         -3.3205335140228271
  0.10330000000000003        -0.52247327566146851
  0.10440000000000002          5.6577563285827637
  0.10550000000000001          12.330754280090332
  0.10660000000000003          15.804214477539062
  0.10770000000000002          13.402304649353027
  0.10880000000000001          4.7871646881103516
  0.10990000000000003         -7.9292764663696289
  0.11100000000000002         -21.446537017822266
  0.11210000000000001         -33.410640716552734
  0.11320000000000002         -44.386112213134766
  0.11430000000000001         -58.479602813720703
  0.11540000000000003         -81.890838623046875
  0.11650000000000002         -119.71242523193359
  0.11760000000000001         -172.53939819335938
  0.11870000000000003         -235.12165832519531
  0.11980000000000002         -298.69067382812500
  0.12090000000000001         -356.66607666015625
  0.12200000000000003         -411.04415893554688
  0.12310000000000001         -475.47714233398438
  0.12420000000000003         -572.12713623046875
  0.12530000000000002         -722.75183105468750
  0.12640000000000001         -938.49731445312500
  0.12750000000000003         -1214.7734375000000
  0.12860000000000002         -1535.6608886718750
  0.12970000000000001         -1886.8857421875000
  0.13080000000000003         -2270.6362304687500
  0.13190000000000002         -2713.1157226562500
  0.13300000000000001         -3259.0683593750000
  0.13410000000000000         -3955.2648925781250
  0.13520000000000004         -4832.4248046875000
  0.13630000000000003         -5897.4609375000000
  0.13740000000000002         -7142.6083984375000
  0.13850000000000001         -8567.4550781250000
  0.13960000000000000         -10201.291015625000
  0.14070000000000005         -12111.168945312500
  0.14180000000000004         -14388.895507812500
  0.14290000000000003         -17124.072265625000
  0.14400000000000002         -20378.388671875000
  0.14510000000000001         -24179.070312500000
  0.14620000000000000         -28536.636718750000
  0.14730000000000004         -33478.523437500000
  0.14840000000000003         -39078.722656250000
  0.14950000000000002         -45464.949218750000
  0.15060000000000001         -52798.917968750000
  0.15170000000000000         -61239.742187500000
  0.15280000000000005         -70913.140625000000
  0.15390000000000004         -81903.351562500000
  0.15500000000000003         -94273.710937500000
  0.15610000000000002         -108100.07031250000
  0.15720000000000001         -123496.85156250000
  0.15830000000000000         -140617.56250000000
  0.15940000000000004         -159633.51562500000
  0.16050000000000003         -180698.46875000000
  0.16160000000000002         -203930.54687500000
  0.16270000000000001         -229409.90625000000
  0.16380000000000000         -257200.06250000000
  0.16490000000000005         -287373.65625000000
  0.16600000000000004         -320017.59375000000
  0.16710000000000003         -355222.59375000000
  0.16820000000000002         -393041.46875000000
  0.16930000000000001         -433463.46875000000
  0.17040000000000000         -476395.59375000000
  0.17150000000000004         -521678.59375000000
  0.17260000000000003         -569108.50000000000
  0.17370000000000002         -618475.37500000000
  0.17480000000000001         -669564.18750000000
  0.17590000000000000         -722129.43750000000
  0.17700000000000005         -775867.25000000000
  0.17810000000000004         -830365.43750000000
  0.17920000000000003         -885108.75000000000
  0.18030000000000002         -939470.37500000000
  0.18140000000000001         -992738.00000000000
  0.18250000000000000         -1044181.6250000000
  0.18360000000000004         -1093050.3750000000
  0.18470000000000003         -1138579.6250000000
  0.18580000000000002         -1179956.2500000000
  0.18690000000000001         -1216317.2500000000
  0.18800000000000000         -1246731.2500000000
  0.18910000000000005         -1270190.7500000000
  0.19020000000000004         -1285652.7500000000
  0.19130000000000003         -1292125.7500000000
  0.19240000000000002         -1288647.1250000000
  0.19350000000000001         -1274367.6250000000
  0.19460000000000005         -1248506.2500000000
  0.19570000000000004         -1210361.6250000000
  0.19680000000000003         -1159286.8750000000
  0.19790000000000002         -1094708.8750000000
  0.19900000000000001         -1016151.9375000000
  0.20010000000000000         -923266.75000000000
  0.20120000000000005         -815914.93750000000
  0.20230000000000004         -694204.31250000000
  0.20340000000000003         -558484.93750000000
  0.20450000000000002         -409313.84375000000
  0.20560000000000000         -247417.75000000000
  0.20670000000000005         -73673.765625000000
  0.20780000000000004          110870.92187500000
  0.20890000000000003          304910.12500000000
