 -0.12000000000000000          0.0000000000000000
 -0.11889999999999999          0.0000000000000000
 -0.11780000000000000          0.0000000000000000
 -0.11670000000000000          0.0000000000000000
 -0.11559999999999999          0.0000000000000000
 -0.11449999999999999          0.0000000000000000
 -0.11340000000000000          0.0000000000000000
 -0.11230000000000000          0.0000000000000000
 -0.11119999999999999          0.0000000000000000
 -0.11009999999999999          0.0000000000000000
 -0.10900000000000000         -1.2226400542792857E-034
 -0.10790000000000000          2.1680939029421199E-033
 -0.10679999999999999         -2.4605024573445826E-031
 -0.10569999999999999         -3.3919794623627239E-031
 -0.10460000000000000         -3.8251571240023225E-031
 -0.10349999999999999         -4.6154811811477350E-029
 -0.10239999999999999         -2.1671598921590286E-028
 -0.10130000000000000          1.3446567222988390E-028
 -0.10020000000000000          2.8166823659090488E-027
  -9.9099999999999994E-002     2.1918014917219827E-027
  -9.7999999999999990E-002    -2.9867469488976983E-026
  -9.6899999999999986E-002    -8.2741746803982028E-026
  -9.5799999999999996E-002     1.1411888652437408E-025
  -9.4699999999999993E-002     9.6244018247641965E-025
  -9.3599999999999989E-002     1.1862489945804176E-024
  -9.2499999999999999E-002    -4.4009453385621991E-024
  -9.1399999999999995E-002    -1.7561081891170994E-023
  -9.0299999999999991E-002    -1.0657300992535081E-023
  -8.9200000000000002E-002     7.9776165436905669E-023
  -8.8099999999999984E-002     2.3055301827442122E-022
  -8.6999999999999994E-002     7.8258214039530431E-023
  -8.5899999999999990E-002    -9.7172204373841219E-022
  -8.4799999999999986E-002    -2.4197856155692537E-021
  -8.3699999999999997E-002    -7.1913837443525170E-022
  -8.2599999999999993E-002     8.8778540569253173E-021
  -8.1499999999999989E-002     2.1299348242440671E-020
  -8.0399999999999999E-002     8.5948492353006441E-021
  -7.9299999999999995E-002    -6.3573282632841185E-020
  -7.8199999999999992E-002    -1.6004051384780163E-019
  -7.7100000000000002E-002    -9.5450264350614786E-020
  -7.5999999999999984E-002     3.5973588531563642E-019
  -7.4899999999999994E-002     1.0296128015503736E-018
  -7.3799999999999991E-002     8.5995929868666650E-019
  -7.2699999999999987E-002    -1.5569126281048317E-018
  -7.1599999999999997E-002    -5.6480967559917049E-018
  -7.0499999999999993E-002    -6.2452036986080083E-018
  -6.9399999999999989E-002     4.4419114993439243E-018
  -6.8300000000000000E-002     2.6146431391527457E-017
  -6.7199999999999996E-002     3.7162144501406386E-017
  -6.6099999999999992E-002    -8.4270079559120699E-019
  -6.5000000000000002E-002    -9.9893487293121124E-017
  -6.3899999999999985E-002    -1.8351766866119408E-016
  -6.2799999999999995E-002    -8.5901747084121363E-017
  -6.1699999999999991E-002     2.9823193627788501E-016
  -6.0599999999999994E-002     7.5482303479206588E-016
  -5.9499999999999990E-002     6.6010484601477463E-016
  -5.8399999999999994E-002    -5.7699545553784037E-016
  -5.7299999999999990E-002    -2.5606441270207940E-015
  -5.6199999999999986E-002    -3.2816313719436028E-015
  -5.5099999999999996E-002    -1.5213651409863094E-016
  -5.3999999999999992E-002     6.9110006854376706E-015
  -5.2899999999999989E-002     1.2531130782556313E-014
  -5.1799999999999985E-002     7.3892833448189685E-015
  -5.0699999999999995E-002    -1.3187983657328341E-014
  -4.9599999999999991E-002    -3.8118986455835599E-014
  -4.8499999999999988E-002    -3.9418636540652918E-014
  -4.7399999999999998E-002     7.8440409346396990E-015
  -4.6299999999999994E-002     9.0730754073037323E-014
  -4.5199999999999990E-002     1.3993119813912602E-013
  -4.4099999999999986E-002     6.5385244690362859E-014
  -4.2999999999999997E-002    -1.5180955451055134E-013
  -4.1899999999999993E-002    -3.7690754380384495E-013
  -4.0799999999999989E-002    -3.5567290215463010E-013
  -3.9699999999999985E-002     8.3783681218991407E-014
  -3.8599999999999995E-002     7.7036949952882794E-013
  -3.7499999999999992E-002     1.1285773747829464E-012
  -3.6399999999999988E-002     5.2941863133010303E-013
  -3.5299999999999984E-002    -1.0541850595582880E-012
  -3.4199999999999994E-002    -2.6102557615370614E-012
  -3.3099999999999991E-002    -2.4913847027074887E-012
  -3.1999999999999987E-002     2.4471765759648267E-013
  -3.0899999999999997E-002     4.4166844660742388E-012
  -2.9799999999999993E-002     6.6768604534139797E-012
  -2.8699999999999989E-002     3.6819440725477381E-012
  -2.7599999999999986E-002    -4.5328584635795366E-012
  -2.6499999999999996E-002    -1.2776899330213531E-011
  -2.5399999999999992E-002    -1.3154578988594512E-011
  -2.4299999999999988E-002    -1.4194614450860343E-012
  -2.3199999999999985E-002     1.7167682206387092E-011
  -2.2099999999999995E-002     2.8462699211417863E-011
  -2.0999999999999991E-002     1.8876311971838255E-011
  -1.9899999999999987E-002    -1.1621864928756942E-011
  -1.8799999999999983E-002    -4.3872457750060434E-011
  -1.7699999999999994E-002    -4.9617827208026100E-011
  -1.6599999999999990E-002    -1.3974355526913396E-011
  -1.5499999999999986E-002     4.6075237375431399E-011
  -1.4399999999999996E-002     8.5842818964287915E-011
  -1.3299999999999992E-002     6.3889858681331901E-011
  -1.2199999999999989E-002    -1.9615795099348077E-011
  -1.1099999999999985E-002    -1.0990254539766653E-010
  -9.9999999999999950E-003    -1.2995128584325499E-010
  -8.8999999999999913E-003    -4.2788265985915785E-011
  -7.7999999999999875E-003     1.0388002263939100E-010
  -6.6999999999999837E-003     1.9638531079113619E-010
  -5.5999999999999939E-003     1.3848630575630239E-010
  -4.4999999999999901E-003    -5.7637668943177900E-011
  -3.3999999999999864E-003    -2.5273969028738463E-010
  -2.2999999999999826E-003    -2.7082813769396807E-010
  -1.1999999999999927E-003    -4.6906915851518960E-011
  -9.9999999999988987E-005     2.8468116752833339E-010
   1.0000000000000148E-003     4.5581499685809490E-010
   2.1000000000000185E-003     2.6629015659196398E-010
   3.2000000000000084E-003    -2.2101770413840427E-010
   4.3000000000000121E-003    -6.6435329459935133E-010
   5.4000000000000159E-003    -6.6564714851224949E-010
   6.5000000000000058E-003    -9.8131287817881940E-011
   7.6000000000000234E-003     7.1639277843260629E-010
   8.7000000000000133E-003     1.1669455401985829E-009
   9.8000000000000032E-003     7.9260581431483956E-010
   1.0900000000000021E-002    -3.0311700371932204E-010
   1.2000000000000011E-002    -1.4119111435562104E-009
   1.3100000000000001E-002    -1.6656914736401518E-009
   1.4200000000000018E-002    -7.0072025959433404E-010
   1.5300000000000008E-002     9.5699459468079340E-010
   1.6400000000000026E-002     2.1493529178684412E-009
   1.7500000000000016E-002     1.8949397606604634E-009
   1.8600000000000005E-002     1.9341948875872816E-010
   1.9700000000000023E-002    -1.8230830178822544E-009
   2.0800000000000013E-002    -2.6218809345834870E-009
   2.1900000000000003E-002    -1.4378171986351163E-009
   2.3000000000000020E-002     9.9812869081006284E-010
   2.4100000000000010E-002     2.8331315071739027E-009
   2.5200000000000000E-002     2.4438955303907051E-009
   2.6300000000000018E-002    -1.8063152362746138E-010
   2.7400000000000008E-002    -3.1564357794167108E-009
   2.8500000000000025E-002    -3.9434771004209779E-009
   2.9600000000000015E-002    -1.3519523278660017E-009
   3.0700000000000005E-002     3.1994846771965513E-009
   3.1800000000000023E-002     6.3398717387030956E-009
   3.2900000000000013E-002     5.1215143237470784E-009
   3.4000000000000002E-002    -5.1175413906534573E-010
   3.5100000000000020E-002    -7.1373613685921100E-009
   3.6200000000000010E-002    -9.9266612707538116E-009
   3.7300000000000028E-002    -6.1474350054879778E-009
   3.8400000000000017E-002     2.4534434484024814E-009
   3.9500000000000007E-002     1.0400412087108180E-008
   4.0600000000000025E-002     1.2168005270041249E-008
   4.1700000000000015E-002     6.2500435937806742E-009
   4.2800000000000005E-002    -3.4982452490339710E-009
   4.3900000000000022E-002    -1.0508721892676931E-008
   4.5000000000000012E-002    -1.0340786005258451E-008
   4.6100000000000002E-002    -4.0095771147719006E-009
   4.7200000000000020E-002     2.9588951289127863E-009
   4.8300000000000010E-002     5.1867101724667464E-009
   4.9400000000000027E-002     2.0791175447953947E-009
   5.0500000000000017E-002    -1.6290472304447690E-009
   5.1600000000000007E-002    -3.1582142456798579E-010
   5.2700000000000025E-002     6.5859344644536577E-009
   5.3800000000000014E-002     1.2588087017206817E-008
   5.4900000000000004E-002     8.9079170706440891E-009
   5.6000000000000022E-002    -6.9025789528609494E-009
   5.7100000000000012E-002    -2.5696293093346867E-008
   5.8200000000000002E-002    -3.0903649417268753E-008
   5.9300000000000019E-002    -1.1283560752417543E-008
   6.0400000000000009E-002     2.6583091283782778E-008
   6.1500000000000027E-002     5.7288342958372596E-008
   6.2600000000000017E-002     5.1673993084477843E-008
   6.3700000000000007E-002     2.3683460748102902E-010
   6.4800000000000024E-002    -7.2113543581053818E-008
   6.5900000000000014E-002    -1.1466467952914172E-007
   6.7000000000000004E-002    -8.2847627425053361E-008
   6.8100000000000022E-002     2.5032546702163927E-008
   6.9200000000000012E-002     1.5344802761774190E-007
   7.0300000000000029E-002     2.1456601473346382E-007
   7.1400000000000019E-002     1.4376982448993658E-007
   7.2500000000000009E-002    -4.7685265514019193E-008
   7.3600000000000027E-002    -2.6172224920628651E-007
   7.4700000000000016E-002    -3.6112396628595889E-007
   7.5800000000000006E-002    -2.5435466000089946E-007
   7.6900000000000024E-002     3.4146303562465619E-008
   7.8000000000000014E-002     3.5883019222637813E-007
   7.9100000000000004E-002     5.2715836318384390E-007
   8.0200000000000021E-002     4.1528284100422752E-007
   8.1300000000000011E-002     5.4421992246034279E-008
   8.2400000000000029E-002    -3.7215554016256647E-007
   8.3500000000000019E-002    -6.2893315089240787E-007
   8.4600000000000009E-002    -5.6873750509112142E-007
   8.5700000000000026E-002    -2.2599382987209538E-007
   8.6800000000000016E-002     2.0144635470842331E-007
   8.7900000000000006E-002     4.7675800374236132E-007
   8.9000000000000024E-002     4.7797800561966142E-007
   9.0100000000000013E-002     2.7836125582325622E-007
   9.1200000000000003E-002     9.1972829352471308E-008
   9.2300000000000021E-002     1.1061705151860224E-007
   9.3400000000000011E-002     3.3695744150463725E-007
   9.4500000000000028E-002     5.3497012686420931E-007
   9.5600000000000018E-002     3.5497455996846838E-007
   9.6700000000000008E-002    -4.2047741999340360E-007
   9.7800000000000026E-002    -1.6545114931432181E-006
   9.8900000000000016E-002    -2.8119845865148818E-006
  0.10000000000000001         -3.1603735806129407E-006
  0.10110000000000002         -2.1403714072221192E-006
  0.10220000000000001          2.8369905180625210E-007
  0.10330000000000003          3.4981862881977577E-006
  0.10440000000000002          6.4382575146737508E-006
  0.10550000000000001          8.0335876191384159E-006
  0.10660000000000003          7.6764154073316604E-006
  0.10770000000000002          5.4547513173019979E-006
  0.10880000000000001          2.0082591163372854E-006
  0.10990000000000003         -1.9278434137959266E-006
  0.11100000000000002         -6.0388597376004327E-006
  0.11210000000000001         -1.0702475265134126E-005
  0.11320000000000002         -1.6839172531035729E-005
  0.11430000000000001         -2.5411964088561945E-005
  0.11540000000000003         -3.6876579542877153E-005
  0.11650000000000002         -5.0950635340996087E-005
  0.11760000000000001         -6.6911132307723165E-005
  0.11870000000000003         -8.4313272964209318E-005
  0.11980000000000002         -1.0372910764999688E-004
  0.12090000000000001         -1.2702531239483505E-004
  0.12200000000000003         -1.5692229499109089E-004
  0.12310000000000001         -1.9600876839831471E-004
  0.12420000000000003         -2.4578408920206130E-004
  0.12530000000000002         -3.0639817123301327E-004
  0.12640000000000001         -3.7743875873275101E-004
  0.12750000000000003         -4.5951147330924869E-004
  0.12860000000000002         -5.5580737534910440E-004
  0.12970000000000001         -6.7271688021719456E-004
  0.13080000000000003         -8.1898353528231382E-004
  0.13190000000000002         -1.0037070605903864E-003
  0.13300000000000001         -1.2342476984485984E-003
  0.13410000000000000         -1.5152839478105307E-003
  0.13520000000000004         -1.8497426062822342E-003
  0.13630000000000003         -2.2412915714085102E-003
  0.13740000000000002         -2.6971641927957535E-003
  0.13850000000000001         -3.2298234291374683E-003
  0.13960000000000000         -3.8565974682569504E-003
  0.14070000000000005         -4.5975870452821255E-003
  0.14180000000000004         -5.4731764830648899E-003
  0.14290000000000003         -6.5027116797864437E-003
  0.14400000000000002         -7.7051809057593346E-003
  0.14510000000000001         -9.1014700010418892E-003
  0.14620000000000000         -1.0716716758906841E-002
  0.14730000000000004         -1.2581172399222851E-002
  0.14840000000000003         -1.4728935435414314E-002
  0.14950000000000002         -1.7195325344800949E-002
  0.15060000000000001         -2.0014723762869835E-002
  0.15170000000000000         -2.3220479488372803E-002
  0.15280000000000005         -2.6847159489989281E-002
  0.15390000000000004         -3.0933937057852745E-002
  0.15500000000000003         -3.5526853054761887E-002
  0.15610000000000002         -4.0678080171346664E-002
  0.15720000000000001         -4.6441983431577682E-002
  0.15830000000000000         -5.2869711071252823E-002
  0.15940000000000004         -6.0005053877830505E-002
  0.16050000000000003         -6.7883618175983429E-002
  0.16160000000000002         -7.6535500586032867E-002
  0.16270000000000001         -8.5989236831665039E-002
  0.16380000000000000         -9.6273966133594513E-002
  0.16490000000000005        -0.10741782188415527
  0.16600000000000004        -0.11944248527288437
  0.16710000000000003        -0.13235624134540558
  0.16820000000000002        -0.14614912867546082
  0.16930000000000001        -0.16079196333885193
  0.17040000000000000        -0.17623884975910187
  0.17150000000000004        -0.19243070483207703
  0.17260000000000003        -0.20929647982120514
  0.17370000000000002        -0.22674977779388428
  0.17480000000000001        -0.24468222260475159
  0.17590000000000000        -0.26295626163482666
  0.17700000000000005        -0.28140085935592651
  0.17810000000000004        -0.29981166124343872
  0.17920000000000003        -0.31795626878738403
  0.18030000000000002        -0.33558121323585510
  0.18140000000000001        -0.35241648554801941
  0.18250000000000000        -0.36817765235900879
  0.18360000000000004        -0.38256293535232544
  0.18470000000000003        -0.39524790644645691
  0.18580000000000002        -0.40588420629501343
  0.18690000000000001        -0.41410332918167114
  0.18800000000000000        -0.41952642798423767
  0.18910000000000005        -0.42177453637123108
  0.19020000000000004        -0.42047557234764099
  0.19130000000000003        -0.41527050733566284
  0.19240000000000002        -0.40581771731376648
  0.19350000000000001        -0.39180061221122742
  0.19460000000000005        -0.37293532490730286
  0.19570000000000004        -0.34897506237030029
  0.19680000000000003        -0.31971752643585205
  0.19790000000000002        -0.28501641750335693
  0.19900000000000001        -0.24479125440120697
  0.20010000000000000        -0.19903382658958435
  0.20120000000000005        -0.14781129360198975
  0.20230000000000004         -9.1263510286808014E-002
  0.20340000000000003         -2.9604617506265640E-002
  0.20450000000000002          3.6866266280412674E-002
  0.20560000000000000         0.10775658488273621
  0.20670000000000005         0.18257597088813782
  0.20780000000000004         0.26073837280273438
  0.20890000000000003         0.34157305955886841
