 -0.12000000000000000          0.0000000000000000
 -0.11889999999999999          0.0000000000000000
 -0.11780000000000000          0.0000000000000000
 -0.11670000000000000          0.0000000000000000
 -0.11559999999999999          0.0000000000000000
 -0.11449999999999999          0.0000000000000000
 -0.11340000000000000          0.0000000000000000
 -0.11230000000000000          0.0000000000000000
 -0.11119999999999999          0.0000000000000000
 -0.11009999999999999          1.2438610270344733E-029
 -0.10900000000000000         -2.0834666804957369E-028
 -0.10790000000000000         -1.4926327810515372E-028
 -0.10679999999999999          6.5613655051328347E-028
 -0.10569999999999999         -6.4991723161072127E-027
 -0.10460000000000000          6.2472907238884947E-027
 -0.10349999999999999          9.8600846205173877E-026
 -0.10239999999999999          3.0240433064204162E-025
 -0.10130000000000000          3.4699365792972121E-025
 -0.10020000000000000         -5.9554496906645974E-025
  -9.9099999999999994E-002    -1.5380836207145440E-024
  -9.7999999999999990E-002    -4.4268073544789648E-025
  -9.6899999999999986E-002     1.4323680256792301E-025
  -9.5799999999999996E-002     1.2956802921122647E-023
  -9.4699999999999993E-002     5.3909535472705380E-024
  -9.3599999999999989E-002     5.9768701238621293E-024
  -9.2499999999999999E-002     2.2866318206910669E-023
  -9.1399999999999995E-002     8.0514596042177712E-023
  -9.0299999999999991E-002     2.6859113381770940E-022
  -8.9200000000000002E-002     1.3059703357549306E-022
  -8.8099999999999984E-002    -4.3128891186701382E-022
  -8.6999999999999994E-002    -9.2796073601685833E-022
  -8.5899999999999990E-002    -6.4206305416765656E-022
  -8.4799999999999986E-002     4.2640418416768945E-022
  -8.3699999999999997E-002    -9.8326541381007505E-022
  -8.2599999999999993E-002    -2.9146482345646281E-021
  -8.1499999999999989E-002    -4.8460311562933771E-021
  -8.0399999999999999E-002    -7.8208392109111569E-021
  -7.9299999999999995E-002    -4.5350916214333498E-021
  -7.8199999999999992E-002     8.1414912517233631E-021
  -7.7100000000000002E-002     2.0818074528776860E-020
  -7.5999999999999984E-002     1.6799841139321657E-020
  -7.4899999999999994E-002    -1.8521174913476098E-020
  -7.3799999999999991E-002    -5.3842194197448120E-020
  -7.2699999999999987E-002    -5.5773576917228478E-020
  -7.1599999999999997E-002    -4.1010141354913002E-020
  -7.0499999999999993E-002     1.5490335065880654E-020
  -6.9399999999999989E-002     1.0538044481969171E-019
  -6.8300000000000000E-002    -2.1762058859936057E-020
  -6.7199999999999996E-002    -3.1585273889817361E-019
  -6.6099999999999992E-002    -5.7655377914104523E-019
  -6.5000000000000002E-002    -4.4492664791580161E-019
  -6.3899999999999985E-002     2.2093464248711452E-019
  -6.2799999999999995E-002     1.1539130254035640E-018
  -6.1699999999999991E-002     1.5526570940459761E-018
  -6.0599999999999994E-002     5.4903658208870308E-019
  -5.9499999999999990E-002    -1.7734744061330788E-018
  -5.8399999999999994E-002    -3.6285307409501187E-018
  -5.7299999999999990E-002    -3.0795332431453588E-018
  -5.6199999999999986E-002     4.0775198796493214E-019
  -5.5099999999999996E-002     5.5311292814736440E-018
  -5.3999999999999992E-002     8.6511288205705563E-018
  -5.2899999999999989E-002     4.8260843679059085E-018
  -5.1799999999999985E-002    -5.4097690643126202E-018
  -5.0699999999999995E-002    -1.5645623323711762E-017
  -4.9599999999999991E-002    -1.6265261011852784E-017
  -4.8499999999999988E-002    -4.5975149259131120E-018
  -4.7399999999999998E-002     1.5617977293279014E-017
  -4.6299999999999994E-002     2.3546083256848608E-017
  -4.5199999999999990E-002     5.8309516478414520E-018
  -4.4099999999999986E-002    -2.4705798747454078E-017
  -4.2999999999999997E-002    -4.5626336293804246E-017
  -4.1899999999999993E-002    -3.6629761132999907E-017
  -4.0799999999999989E-002     1.0564557223263932E-017
  -3.9699999999999985E-002     6.8443557625707879E-017
  -3.8599999999999995E-002     9.8542377098021909E-017
  -3.7499999999999992E-002     5.5985357332822227E-017
  -3.6399999999999988E-002    -6.5638310235854744E-017
  -3.5299999999999984E-002    -2.1333928998407424E-016
  -3.4199999999999994E-002    -2.7556279351051817E-016
  -3.3099999999999991E-002    -1.4546200035338546E-016
  -3.1999999999999987E-002     1.8123695304137307E-016
  -3.0899999999999997E-002     5.5281160610254603E-016
  -2.9799999999999993E-002     7.0000793288521428E-016
  -2.8699999999999989E-002     3.7707820993128837E-016
  -2.7599999999999986E-002    -3.9033430202559778E-016
  -2.6499999999999996E-002    -1.1833901541254566E-015
  -2.5399999999999992E-002    -1.2883524652459598E-015
  -2.4299999999999988E-002    -3.2698335794168897E-016
  -2.3199999999999985E-002     1.1472505405187862E-015
  -2.2099999999999995E-002     1.8009008895963647E-015
  -2.0999999999999991E-002     6.0823800109951922E-016
  -1.9899999999999987E-002    -1.7605414637255918E-015
  -1.8799999999999983E-002    -2.8642544048763886E-015
  -1.7699999999999994E-002    -4.4629610125457449E-016
  -1.6599999999999990E-002     4.7753227289332525E-015
  -1.5499999999999986E-002     7.9198393719906446E-015
  -1.4399999999999996E-002     3.4568619481815466E-015
  -1.3299999999999992E-002    -8.6478015097176189E-015
  -1.2199999999999989E-002    -1.9419016362379887E-014
  -1.1099999999999985E-002    -1.6171925723475894E-014
  -9.9999999999999950E-003     5.4699138861207756E-015
  -8.8999999999999913E-003     3.2513928886496873E-014
  -7.7999999999999875E-003     4.0069083305244863E-014
  -6.6999999999999837E-003     1.2475903387362385E-014
  -5.5999999999999939E-003    -3.6657593735674177E-014
  -4.4999999999999901E-003    -6.6883469791202688E-014
  -3.3999999999999864E-003    -4.0882278980322248E-014
  -2.2999999999999826E-003     3.5413854601639219E-014
  -1.1999999999999927E-003     1.0158945895882149E-013
  -9.9999999999988987E-005     8.4373236479071134E-014
   1.0000000000000148E-003    -3.0449696041510987E-014
   2.1000000000000185E-003    -1.5888063976433886E-013
   3.2000000000000084E-003    -1.7065194472375839E-013
   4.3000000000000121E-003    -9.3751533602060965E-016
   5.4000000000000159E-003     2.5028823414860457E-013
   6.5000000000000058E-003     3.5032144286156752E-013
   7.6000000000000234E-003     1.2615575901639420E-013
   8.7000000000000133E-003    -3.1589197945804115E-013
   9.8000000000000032E-003    -6.0749940234555710E-013
   1.0900000000000021E-002    -4.0757721091362609E-013
   1.2000000000000011E-002     2.7231797546101166E-013
   1.3100000000000001E-002     9.3416030119697346E-013
   1.4200000000000018E-002     8.5775093625062304E-013
   1.5300000000000008E-002    -1.3169455489233511E-013
   1.6400000000000026E-002    -1.3448857912740086E-012
   1.7500000000000016E-002    -1.6390234438765083E-012
   1.8600000000000005E-002    -4.1562833361617757E-013
   1.9700000000000023E-002     1.6152211946424133E-012
   2.0800000000000013E-002     2.7116995714865366E-012
   2.1900000000000003E-002     1.6352723212001430E-012
   2.3000000000000020E-002    -9.4665247862835145E-013
   2.4100000000000010E-002    -2.9290042613538958E-012
   2.5200000000000000E-002    -2.3511351286004123E-012
   2.6300000000000018E-002     5.1123900035240921E-013
   2.7400000000000008E-002     3.3911189828428334E-012
   2.8500000000000025E-002     3.4438144610321464E-012
   2.9600000000000015E-002     1.2664650957724261E-013
   3.0700000000000005E-002    -3.8557412471162955E-012
   3.1800000000000023E-002    -5.3348016108845098E-012
   3.2900000000000013E-002    -3.7328438950989806E-012
   3.4000000000000002E-002    -6.0788304728429110E-013
   3.5100000000000020E-002     2.7971702645096519E-012
   3.6200000000000010E-002     5.3619461301557259E-012
   3.7300000000000028E-002     7.0164208644529769E-012
   3.8400000000000017E-002     6.7102482424752363E-012
   3.9500000000000007E-002     2.4127566264353639E-012
   4.0600000000000025E-002    -2.3048739566239318E-012
   4.1700000000000015E-002    -2.4710006176625887E-012
   4.2800000000000005E-002     4.2251406366655697E-012
   4.3900000000000022E-002     1.1201374029712330E-011
   4.5000000000000012E-002     3.4727481307283981E-012
   4.6100000000000002E-002    -2.0921384416561217E-011
   4.7200000000000020E-002    -4.5595610620452476E-011
   4.8300000000000010E-002    -4.5061506609433977E-011
   4.9400000000000027E-002    -2.1559812962701486E-011
   5.0500000000000017E-002     1.4265953869607717E-011
   5.1600000000000007E-002     4.8691255888355656E-011
   5.2700000000000025E-002     6.5190630671452254E-011
   5.3800000000000014E-002     4.8639089283986081E-011
   5.4900000000000004E-002     1.0800512394160133E-011
   5.6000000000000022E-002    -3.8241767391644643E-011
   5.7100000000000012E-002    -5.8154422249989679E-011
   5.8200000000000002E-002    -7.3585589011049279E-011
   5.9300000000000019E-002    -9.1257494616581170E-011
   6.0400000000000009E-002    -7.5318300207793953E-011
   6.1500000000000027E-002    -2.0166148265166051E-011
   6.2600000000000017E-002     1.1458231932715002E-011
   6.3700000000000007E-002     2.7492832229553121E-012
   6.4800000000000024E-002    -2.1644847372770393E-011
   6.5900000000000014E-002    -3.4649099995426313E-012
   6.7000000000000004E-002     6.6252059394145135E-011
   6.8100000000000022E-002     1.1804311694785241E-010
   6.9200000000000012E-002     1.0933416672020968E-010
   7.0300000000000029E-002     8.9421518800758548E-011
   7.1400000000000019E-002     4.0379248555932890E-011
   7.2500000000000009E-002    -7.3644493281399548E-011
   7.3600000000000027E-002    -1.9214971280767656E-010
   7.4700000000000016E-002    -1.3139571375386794E-010
   7.5800000000000006E-002     8.1728651624146664E-011
   7.6900000000000024E-002     3.3518637865270762E-010
   7.8000000000000014E-002     4.7212561637977046E-010
   7.9100000000000004E-002     3.0880561996404765E-010
   8.0200000000000021E-002     7.8263395764111010E-011
   8.1300000000000011E-002    -4.9204782609502118E-011
   8.2400000000000029E-002    -2.1700628793919208E-010
   8.3500000000000019E-002    -5.1028925529550406E-010
   8.4600000000000009E-002    -8.9768331656969735E-010
   8.5700000000000026E-002    -1.0430774022296418E-009
   8.6800000000000016E-002    -5.1624932106975052E-010
   8.7900000000000006E-002     1.2261576476380043E-010
   8.9000000000000024E-002     3.2677718864171368E-010
   9.0100000000000013E-002    -3.9224642978119562E-010
   9.1200000000000003E-002    -1.1516033682212878E-009
   9.2300000000000021E-002    -9.2055302269855588E-010
   9.3400000000000011E-002     3.9053416056589185E-010
   9.4500000000000028E-002     1.6500842914268787E-009
   9.5600000000000018E-002     1.8945791602220652E-009
   9.6700000000000008E-002     1.0052592092080204E-009
   9.7800000000000026E-002    -4.6329212688434041E-010
   9.8900000000000016E-002    -1.0024964192112407E-009
  0.10000000000000001         -5.5529678077981259E-011
  0.10110000000000002          1.0292426910751828E-009
  0.10220000000000001          8.6144114064268251E-010
  0.10330000000000003         -3.0573057974159212E-010
  0.10440000000000002         -1.2801987248067803E-009
  0.10550000000000001         -1.3045928781707516E-009
  0.10660000000000003         -4.0580197535611262E-010
  0.10770000000000002          9.0528518015275949E-010
  0.10880000000000001          1.7234095261997595E-009
  0.10990000000000003          1.2687934036748061E-009
  0.11100000000000002          1.6884399434147213E-010
  0.11210000000000001         -6.6221661487730898E-010
  0.11320000000000002         -6.8661065721897785E-010
  0.11430000000000001         -2.9819580832368686E-011
  0.11540000000000003          8.2415668734014957E-010
  0.11650000000000002          1.3375404117610401E-009
  0.11760000000000001          1.7971463206478688E-009
  0.11870000000000003          2.2209005745565946E-009
  0.11980000000000002          2.2502844032601388E-009
  0.12090000000000001          1.3475202065293956E-009
  0.12200000000000003         -3.0813271378882234E-010
  0.12310000000000001         -1.8383041755498652E-009
  0.12420000000000003         -2.2032906610292002E-009
  0.12530000000000002         -1.5285734900061243E-009
  0.12640000000000001         -3.8778230626590471E-010
  0.12750000000000003          2.3315713248983627E-010
  0.12860000000000002         -1.1390331039473622E-010
  0.12970000000000001         -1.2138525740112982E-009
  0.13080000000000003         -1.6326168195135438E-009
  0.13190000000000002         -1.2984920916281339E-009
  0.13300000000000001         -7.4925637916223309E-010
  0.13410000000000000         -1.1859464521535301E-009
  0.13520000000000004         -2.2769326424310066E-009
  0.13630000000000003         -2.3282153982506770E-009
  0.13740000000000002         -4.9727610917926768E-010
  0.13850000000000001          2.2971815560879350E-009
  0.13960000000000000          2.9898246101112136E-009
  0.14070000000000005          8.3000534223387490E-010
  0.14180000000000004         -1.9885915136796939E-009
  0.14290000000000003         -2.6740034630989840E-009
  0.14400000000000002         -1.1948599887290356E-009
  0.14510000000000001          1.0730241140066710E-009
  0.14620000000000000          1.5931307384420279E-009
  0.14730000000000004          5.8057098017982867E-010
  0.14840000000000003         -3.0650734728077111E-010
  0.14950000000000002          4.6456213875778474E-010
  0.15060000000000001          2.5890387611582355E-009
  0.15170000000000000          4.1667749250962061E-009
  0.15280000000000005          2.7150297565725623E-009
  0.15390000000000004         -7.6234457635493413E-010
  0.15500000000000003         -3.2179412468025248E-009
  0.15610000000000002         -2.5544271142763364E-009
  0.15720000000000001         -1.1624683160516014E-010
  0.15830000000000000          1.0491931767830920E-009
  0.15940000000000004         -4.9218140674156530E-010
  0.16050000000000003         -3.8440743921341891E-009
  0.16160000000000002         -4.9552268954755618E-009
  0.16270000000000001         -2.3557136241691978E-009
  0.16380000000000000          1.0325406085698319E-009
  0.16490000000000005          1.4630175959595704E-009
  0.16600000000000004         -1.9964310205011770E-009
  0.16710000000000003         -6.0295088921691331E-009
  0.16820000000000002         -6.1368101711423151E-009
  0.16930000000000001         -1.1890011197834838E-009
  0.17040000000000000          5.0315480670803936E-009
  0.17150000000000004          7.2277281937260796E-009
  0.17260000000000003          3.7951681797210313E-009
  0.17370000000000002         -1.2596879095383429E-009
  0.17480000000000001         -2.8100262117192187E-009
  0.17590000000000000          2.7348653897085740E-010
  0.17700000000000005          4.3339620781068788E-009
  0.17810000000000004          5.0243644800218590E-009
  0.17920000000000003          1.9592858446770833E-009
  0.18030000000000002         -6.0386712297244571E-010
  0.18140000000000001          1.5474976855500699E-009
  0.18250000000000000          7.5170838442772947E-009
  0.18360000000000004          1.1640300279225357E-008
  0.18470000000000003          9.1488505660208830E-009
  0.18580000000000002          1.3378834706756493E-009
  0.18690000000000001         -5.4020099504725749E-009
  0.18800000000000000         -5.5496456319303888E-009
  0.18910000000000005         -3.0157804031816227E-010
  0.19020000000000004          3.8395637780297420E-009
  0.19130000000000003          1.7380030747915498E-009
  0.19240000000000002         -4.6344088566740993E-009
  0.19350000000000001         -8.1521180916865887E-009
  0.19460000000000005         -3.9213463587373099E-009
  0.19570000000000004          5.2480171319757574E-009
  0.19680000000000003          1.1311715120143617E-008
  0.19790000000000002          8.6365261608989385E-009
  0.19900000000000001         -1.8725469785874083E-010
  0.20010000000000000         -7.0122947448680861E-009
  0.20120000000000005         -5.9812990116370202E-009
  0.20230000000000004          7.1428901682324408E-010
  0.20340000000000003          5.5052478131756288E-009
  0.20450000000000002          3.1616891327246321E-009
  0.20560000000000000         -3.8291654291811028E-009
  0.20670000000000005         -8.0594277918066837E-009
  0.20780000000000004         -5.0386539385272044E-009
  0.20890000000000003          2.0871564476721005E-009
