 -0.12000000000000000          0.0000000000000000
 -0.11889999999999999          0.0000000000000000
 -0.11780000000000000          0.0000000000000000
 -0.11670000000000000          0.0000000000000000
 -0.11559999999999999          0.0000000000000000
 -0.11449999999999999          0.0000000000000000
 -0.11340000000000000          0.0000000000000000
 -0.11230000000000000          0.0000000000000000
 -0.11119999999999999          2.6473898299402910E-016
 -0.11009999999999999          2.8034903788227332E-015
 -0.10900000000000000          1.2040686847634811E-014
 -0.10790000000000000          1.9036862201633059E-014
 -0.10679999999999999         -4.8240654092895907E-014
 -0.10569999999999999         -3.3721696225327835E-013
 -0.10460000000000000         -7.9312858364266603E-013
 -0.10349999999999999         -4.4188031055394927E-013
 -0.10239999999999999          2.9107482483331504E-012
 -0.10130000000000000          1.0246050535789308E-011
 -0.10020000000000000          1.4893431973805882E-011
  -9.9099999999999994E-002    -2.1903908808268424E-012
  -9.7999999999999990E-002    -6.0277394187124855E-011
  -9.6899999999999986E-002    -1.3893751427129786E-010
  -9.5799999999999996E-002    -1.3432281675829216E-010
  -9.4699999999999993E-002     1.1313749936903150E-010
  -9.3599999999999989E-002     6.4479521721949595E-010
  -9.2499999999999999E-002     1.1187385462463340E-009
  -9.1399999999999995E-002     7.3792993937615847E-010
  -9.0299999999999991E-002    -1.2457279652267061E-009
  -8.9200000000000002E-002    -4.4161154733046715E-009
  -8.8099999999999984E-002    -6.2522480526183699E-009
  -8.6999999999999994E-002    -2.8271309737704087E-009
  -8.5899999999999990E-002     7.9257569396418148E-009
  -8.4799999999999986E-002     2.1738530975312642E-008
  -8.3699999999999997E-002     2.6513932382954408E-008
  -8.2599999999999993E-002     8.3603008960153602E-009
  -8.1499999999999989E-002    -3.4979322549588687E-008
  -8.0399999999999999E-002    -8.1874460988728970E-008
  -7.9299999999999995E-002    -8.9782666634619090E-008
  -7.8199999999999992E-002    -2.1705442776465134E-008
  -7.7100000000000002E-002     1.1430926605271452E-007
  -7.5999999999999984E-002     2.4317097313542035E-007
  -7.4899999999999994E-002     2.5016993276949506E-007
  -7.3799999999999991E-002     5.9975498345465894E-008
  -7.2699999999999987E-002    -2.7839365657200688E-007
  -7.1599999999999997E-002    -5.7374808193344506E-007
  -7.0499999999999993E-002    -5.8631820820664871E-007
  -6.9399999999999989E-002    -1.9576560816858546E-007
  -6.8300000000000000E-002     4.7012534309942566E-007
  -6.7199999999999996E-002     1.0592293619993143E-006
  -6.6099999999999992E-002     1.1851369663418154E-006
  -6.5000000000000002E-002     6.6679643850875436E-007
  -6.3899999999999985E-002    -3.4735677445496549E-007
  -6.2799999999999995E-002    -1.4472865359493881E-006
  -6.1699999999999991E-002    -2.1460646166815422E-006
  -6.0599999999999994E-002    -2.0412010144355008E-006
  -5.9499999999999990E-002    -9.0662825869003427E-007
  -5.8399999999999994E-002     1.1890441555806319E-006
  -5.7299999999999990E-002     3.6635665310313925E-006
  -5.6199999999999986E-002     5.2741957006219309E-006
  -5.5099999999999996E-002     4.4447974687500391E-006
  -5.3999999999999992E-002     2.9128213441254047E-007
  -5.2899999999999989E-002    -6.1065657064318657E-006
  -5.1799999999999985E-002    -1.1315472875139676E-005
  -5.0699999999999995E-002    -1.1032178008463234E-005
  -4.9599999999999991E-002    -3.1402773856825661E-006
  -4.8499999999999988E-002     9.6387084340676665E-006
  -4.7399999999999998E-002     2.0007306375191547E-005
  -4.6299999999999994E-002     2.0140278138569556E-005
  -4.5199999999999990E-002     7.3662949944264255E-006
  -4.4099999999999986E-002    -1.2693036296695936E-005
  -4.2999999999999997E-002    -2.8572845621965826E-005
  -4.1899999999999993E-002    -3.0033645089133643E-005
  -4.0799999999999989E-002    -1.4904147064953577E-005
  -3.9699999999999985E-002     9.3994167400524020E-006
  -3.8599999999999995E-002     3.0735533073311672E-005
  -3.7499999999999992E-002     3.9457678212784231E-005
  -3.6399999999999988E-002     3.2440402719657868E-005
  -3.5299999999999984E-002     1.1944765901716892E-005
  -3.4199999999999994E-002    -1.7392319932696410E-005
  -3.3099999999999991E-002    -4.8780380893731490E-005
  -3.1999999999999987E-002    -7.0524991315323859E-005
  -3.0899999999999997E-002    -6.6031825554091483E-005
  -2.9799999999999993E-002    -2.2399910449166782E-005
  -2.8699999999999989E-002     5.4731430282117799E-005
  -2.7599999999999986E-002     1.3238337123766541E-004
  -2.6499999999999996E-002     1.6068376135081053E-004
  -2.5399999999999992E-002     1.0289178317179903E-004
  -2.4299999999999988E-002    -3.2992684282362461E-005
  -2.3199999999999985E-002    -1.8653029110282660E-004
  -2.2099999999999995E-002    -2.7323968242853880E-004
  -2.0999999999999991E-002    -2.3458639043383300E-004
  -1.9899999999999987E-002    -7.6114090916235000E-005
  -1.8799999999999983E-002     1.3363212929107249E-004
  -1.7699999999999994E-002     3.0251318821683526E-004
  -1.6599999999999990E-002     3.6382733378559351E-004
  -1.5499999999999986E-002     3.0204010545276105E-004
  -1.4399999999999996E-002     1.4454973279498518E-004
  -1.3299999999999992E-002    -6.3202147430274636E-005
  -1.2199999999999989E-002    -2.7369658346287906E-004
  -1.1099999999999985E-002    -4.3639060459099710E-004
  -9.9999999999999950E-003    -4.9584842054173350E-004
  -8.8999999999999913E-003    -4.0916851139627397E-004
  -7.7999999999999875E-003    -1.8076559354085475E-004
  -6.6999999999999837E-003     1.1471850302768871E-004
  -5.5999999999999939E-003     3.5347798257134855E-004
  -4.4999999999999901E-003     4.2947498150169849E-004
  -3.3999999999999864E-003     3.2874898170121014E-004
  -2.2999999999999826E-003     1.5724734112154692E-004
  -1.1999999999999927E-003     9.3540380476042628E-005
  -9.9999999999988987E-005     2.8570357244461775E-004
   1.0000000000000148E-003     7.4695755029097199E-004
   2.1000000000000185E-003     1.3055311283096671E-003
   3.2000000000000084E-003     1.6364359762519598E-003
   4.3000000000000121E-003     1.3680028496310115E-003
   5.4000000000000159E-003     2.2869395615998656E-004
   6.5000000000000058E-003    -1.8199909245595336E-003
   7.6000000000000234E-003    -4.5283427461981773E-003
   8.7000000000000133E-003    -7.4322139844298363E-003
   9.8000000000000032E-003    -1.0053888894617558E-002
   1.0900000000000021E-002    -1.2148655951023102E-002
   1.2000000000000011E-002    -1.3859721831977367E-002
   1.3100000000000001E-002    -1.5671536326408386E-002
   1.4200000000000018E-002    -1.8169309943914413E-002
   1.5300000000000008E-002    -2.1749706938862801E-002
   1.6400000000000026E-002    -2.6478411629796028E-002
   1.7500000000000016E-002    -3.2198164612054825E-002
   1.8600000000000005E-002    -3.8813166320323944E-002
   1.9700000000000023E-002    -4.6547267585992813E-002
   2.0800000000000013E-002    -5.6000050157308578E-002
   2.1900000000000003E-002    -6.7980274558067322E-002
   2.3000000000000020E-002    -8.3263576030731201E-002
   2.4100000000000010E-002   -0.10245727747678757
   2.5200000000000000E-002   -0.12605178356170654
   2.6300000000000018E-002   -0.15457986295223236
   2.7400000000000008E-002   -0.18874120712280273
   2.8500000000000025E-002   -0.22940500080585480
   2.9600000000000015E-002   -0.27752566337585449
   3.0700000000000005E-002   -0.33408254384994507
   3.1800000000000023E-002   -0.40010908246040344
   3.2900000000000013E-002   -0.47683691978454590
   3.4000000000000002E-002   -0.56585824489593506
   3.5100000000000020E-002   -0.66925221681594849
   3.6200000000000010E-002   -0.78960961103439331
   3.7300000000000028E-002   -0.92989641427993774
   3.8400000000000017E-002    -1.0932000875473022
   3.9500000000000007E-002    -1.2824240922927856
   4.0600000000000025E-002    -1.5000518560409546
   4.1700000000000015E-002    -1.7482312917709351
   4.2800000000000005E-002    -2.0292215347290039
   4.3900000000000022E-002    -2.3459072113037109
   4.5000000000000012E-002    -2.7020812034606934
   4.6100000000000002E-002    -3.1022033691406250
   4.7200000000000020E-002    -3.5506949424743652
   4.8300000000000010E-002    -4.0512552261352539
   4.9400000000000027E-002    -4.6066622734069824
   5.0500000000000017E-002    -5.2190279960632324
   5.1600000000000007E-002    -5.8905215263366699
   5.2700000000000025E-002    -6.6234955787658691
   5.3800000000000014E-002    -7.4202508926391602
   5.4900000000000004E-002    -8.2822713851928711
   5.6000000000000022E-002    -9.2094669342041016
   5.7100000000000012E-002    -10.199991226196289
   5.8200000000000002E-002    -11.250361442565918
   5.9300000000000019E-002    -12.355675697326660
   6.0400000000000009E-002    -13.510035514831543
   6.1500000000000027E-002    -14.706649780273438
   6.2600000000000017E-002    -15.936994552612305
   6.3700000000000007E-002    -17.190368652343750
   6.4800000000000024E-002    -18.453287124633789
   6.5900000000000014E-002    -19.709360122680664
   6.7000000000000004E-002    -20.938966751098633
   6.8100000000000022E-002    -22.119041442871094
   6.9200000000000012E-002    -23.225004196166992
   7.0300000000000029E-002    -24.230848312377930
   7.1400000000000019E-002    -25.109064102172852
   7.2500000000000009E-002    -25.831226348876953
   7.3600000000000027E-002    -26.365373611450195
   7.4700000000000016E-002    -26.677610397338867
   7.5800000000000006E-002    -26.732410430908203
   7.6900000000000024E-002    -26.494989395141602
   7.8000000000000014E-002    -25.931049346923828
   7.9100000000000004E-002    -25.007270812988281
   8.0200000000000021E-002    -23.692115783691406
   8.1300000000000011E-002    -21.954042434692383
   8.2400000000000029E-002    -19.766960144042969
   8.3500000000000019E-002    -17.109775543212891
   8.4600000000000009E-002    -13.962620735168457
   8.5700000000000026E-002    -10.317020416259766
   8.6800000000000016E-002    -6.1703400611877441
   8.7900000000000006E-002    -1.5276442766189575
   8.9000000000000024E-002     3.5977921485900879
   9.0100000000000013E-002     9.1886806488037109
   9.1200000000000003E-002     15.214027404785156
   9.2300000000000021E-002     21.636575698852539
   9.3400000000000011E-002     28.405063629150391
   9.4500000000000028E-002     35.460144042968750
   9.5600000000000018E-002     42.725578308105469
   9.6700000000000008E-002     50.116394042968750
   9.7800000000000026E-002     57.545013427734375
   9.8900000000000016E-002     64.910919189453125
  0.10000000000000001          72.110481262207031
  0.10110000000000002          79.041320800781250
  0.10220000000000001          85.594421386718750
  0.10330000000000003          91.654151916503906
  0.10440000000000002          97.104164123535156
  0.10550000000000001          101.83101654052734
  0.10660000000000003          105.72425079345703
  0.10770000000000002          108.67828369140625
  0.10880000000000001          110.60176086425781
  0.10990000000000003          111.41499328613281
  0.11100000000000002          111.05284118652344
  0.11210000000000001          109.46087646484375
  0.11320000000000002          106.60771942138672
  0.11430000000000001          102.47885894775391
  0.11540000000000003          97.080963134765625
  0.11650000000000002          90.432762145996094
  0.11760000000000001          82.571220397949219
  0.11870000000000003          73.554512023925781
  0.11980000000000002          63.464820861816406
  0.12090000000000001          52.408409118652344
  0.12200000000000003          40.510631561279297
  0.12310000000000001          27.915374755859375
  0.12420000000000003          14.775168418884277
  0.12530000000000002          1.2531553506851196
  0.12640000000000001         -12.478516578674316
  0.12750000000000003         -26.245449066162109
  0.12860000000000002         -39.871402740478516
  0.12970000000000001         -53.180942535400391
  0.13080000000000003         -65.997886657714844
  0.13190000000000002         -78.147956848144531
  0.13300000000000001         -89.465057373046875
  0.13410000000000000         -99.789352416992188
  0.13520000000000004         -108.98825073242188
  0.13630000000000003         -116.94958496093750
  0.13740000000000002         -123.58439636230469
  0.13850000000000001         -128.82467651367188
  0.13960000000000000         -132.61787414550781
  0.14070000000000005         -134.93115234375000
  0.14180000000000004         -135.76252746582031
  0.14290000000000003         -135.12797546386719
  0.14400000000000002         -133.07023620605469
  0.14510000000000001         -129.63870239257812
  0.14620000000000000         -124.90223693847656
  0.14730000000000004         -118.95916748046875
  0.14840000000000003         -111.92850494384766
  0.14950000000000002         -103.94564819335938
  0.15060000000000001         -95.155525207519531
  0.15170000000000000         -85.691917419433594
  0.15280000000000005         -75.693206787109375
  0.15390000000000004         -65.307250976562500
  0.15500000000000003         -54.687370300292969
  0.15610000000000002         -43.979846954345703
  0.15720000000000001         -33.324886322021484
  0.15830000000000000         -22.848234176635742
  0.15940000000000004         -12.666161537170410
  0.16050000000000003         -2.8920292854309082
  0.16160000000000002          6.3733325004577637
  0.16270000000000001          15.034960746765137
  0.16380000000000000          23.021774291992188
  0.16490000000000005          30.282098770141602
  0.16600000000000004          36.778633117675781
  0.16710000000000003          42.487697601318359
  0.16820000000000002          47.397682189941406
  0.16930000000000001          51.506660461425781
  0.17040000000000000          54.825355529785156
  0.17150000000000004          57.375118255615234
  0.17260000000000003          59.184734344482422
  0.17370000000000002          60.289382934570312
  0.17480000000000001          60.731590270996094
  0.17590000000000000          60.563323974609375
  0.17700000000000005          59.844028472900391
  0.17810000000000004          58.634838104248047
  0.17920000000000003          56.993904113769531
  0.18030000000000002          54.975505828857422
  0.18140000000000001          52.632274627685547
  0.18250000000000000          50.020969390869141
  0.18360000000000004          47.200000762939453
  0.18470000000000003          44.222877502441406
  0.18580000000000002          41.133045196533203
  0.18690000000000001          37.962978363037109
  0.18800000000000000          34.741069793701172
  0.18910000000000005          31.499261856079102
  0.19020000000000004          28.273973464965820
  0.19130000000000003          25.098722457885742
  0.19240000000000002          21.996189117431641
  0.19350000000000001          18.975368499755859
  0.19460000000000005          16.037279129028320
  0.19570000000000004          13.185946464538574
  0.19680000000000003          10.433376312255859
  0.19790000000000002          7.7939395904541016
  0.19900000000000001          5.2760734558105469
  0.20010000000000000          2.8747329711914062
  0.20120000000000005         0.57752585411071777
  0.20230000000000004         -1.6243331432342529
  0.20340000000000003         -3.7285032272338867
  0.20450000000000002         -5.7222290039062500
  0.20560000000000000         -7.5923991203308105
  0.20670000000000005         -9.3369693756103516
  0.20780000000000004         -10.964842796325684
  0.20890000000000003         -12.488050460815430
