 -0.12000000000000000          0.0000000000000000
 -0.11889999999999999          0.0000000000000000
 -0.11780000000000000          0.0000000000000000
 -0.11670000000000000          0.0000000000000000
 -0.11559999999999999          0.0000000000000000
 -0.11449999999999999          0.0000000000000000
 -0.11340000000000000          0.0000000000000000
 -0.11230000000000000          0.0000000000000000
 -0.11119999999999999          0.0000000000000000
 -0.11009999999999999          0.0000000000000000
 -0.10900000000000000          0.0000000000000000
 -0.10790000000000000          2.1193534961144764E-029
 -0.10679999999999999         -1.4116243157307213E-028
 -0.10569999999999999          3.1017920274582798E-027
 -0.10460000000000000          1.4404586262640076E-026
 -0.10349999999999999         -3.3028099254015276E-026
 -0.10239999999999999         -1.2349539817739582E-025
 -0.10130000000000000          9.2905450428372175E-025
 -0.10020000000000000          3.6246348159128010E-024
  -9.9099999999999994E-002    -6.4126495096806997E-024
  -9.7999999999999990E-002    -5.3645728553085896E-023
  -9.6899999999999986E-002    -3.7481583640985616E-023
  -9.5799999999999996E-002     4.0890338702689544E-022
  -9.4699999999999993E-002     1.1113100847712819E-021
  -9.3599999999999989E-002    -8.3233898032315511E-022
  -9.2499999999999999E-002    -9.3319568261713228E-021
  -9.1399999999999995E-002    -1.3545567206695996E-020
  -9.0299999999999991E-002     2.8410901080720348E-020
  -8.9200000000000002E-002     1.3381975438457442E-019
  -8.8099999999999984E-002     1.2034875621763037E-019
  -8.6999999999999994E-002    -4.2919915273660119E-019
  -8.5899999999999990E-002    -1.4388100549911949E-018
  -8.4799999999999986E-002    -9.3184811815757817E-019
  -8.3699999999999997E-002     4.3985200859512301E-018
  -8.2599999999999993E-002     1.2616951968866216E-017
  -8.1499999999999989E-002     7.3086237853837305E-018
  -8.0399999999999999E-002    -3.4258452692492090E-017
  -7.9299999999999995E-002    -9.4055054623819743E-017
  -7.8199999999999992E-002    -5.9657013548598104E-017
  -7.7100000000000002E-002     2.1149210964945962E-016
  -7.5999999999999984E-002     6.0673811750816867E-016
  -7.4899999999999994E-002     4.6726371364958505E-016
  -7.3799999999999991E-002    -1.0386078712424631E-015
  -7.2699999999999987E-002    -3.4024324580239325E-015
  -7.1599999999999997E-002    -3.2633600242383803E-015
  -7.0499999999999993E-002     3.8793342419429690E-015
  -6.9399999999999989E-002     1.6532844768235057E-014
  -6.8300000000000000E-002     1.9698454225744975E-014
  -6.7199999999999996E-002    -8.9335819557917473E-015
  -6.6099999999999992E-002    -6.8910331542555714E-014
  -6.5000000000000002E-002    -1.0196072366399841E-013
  -6.3899999999999985E-002    -8.1217330631004961E-015
  -6.2799999999999995E-002     2.4110986644731991E-013
  -6.1699999999999991E-002     4.5195826790279947E-013
  -6.0599999999999994E-002     2.2402091575009220E-013
  -5.9499999999999990E-002    -6.7311558887492295E-013
  -5.8399999999999994E-002    -1.7101807166589045E-012
  -5.7299999999999990E-002    -1.4680799978461501E-012
  -5.6199999999999986E-002     1.2736366865676030E-012
  -5.5099999999999996E-002     5.4632101793850030E-012
  -5.3999999999999992E-002     6.7072159458392289E-012
  -5.2899999999999989E-002    -1.0514515419359632E-013
  -5.1799999999999985E-002    -1.4305424900218355E-011
  -5.0699999999999995E-002    -2.4268358156387393E-011
  -4.9599999999999991E-002    -1.2139419677814622E-011
  -4.8499999999999988E-002     2.8240356234054964E-011
  -4.7399999999999998E-002     7.1790573485941422E-011
  -4.6299999999999994E-002     6.5561937823144234E-011
  -4.5199999999999990E-002    -2.8566392307194377E-011
  -4.4099999999999986E-002    -1.7228535265090272E-010
  -4.2999999999999997E-002    -2.3256355174972043E-010
  -4.1899999999999993E-002    -6.5849228847447705E-011
  -4.0799999999999989E-002     3.1613467399438377E-010
  -3.9699999999999985E-002     6.3694532981273255E-010
  -3.8599999999999995E-002     4.7753090370861173E-010
  -3.7499999999999992E-002    -3.4217667588265499E-010
  -3.6399999999999988E-002    -1.3815643074011064E-009
  -3.5299999999999984E-002    -1.6400381053216506E-009
  -3.4199999999999994E-002    -2.9456667660632263E-010
  -3.3099999999999991E-002     2.2687194345394346E-009
  -3.1999999999999987E-002     4.0921697141982349E-009
  -3.0899999999999997E-002     2.7765092447396000E-009
  -2.9799999999999993E-002    -2.2187336412571312E-009
  -2.8699999999999989E-002    -7.8974737860448840E-009
  -2.7599999999999986E-002    -8.8295468714250092E-009
  -2.6499999999999996E-002    -1.4260489455963921E-009
  -2.5399999999999992E-002     1.1371476205113140E-008
  -2.4299999999999988E-002     1.9647195870220457E-008
  -2.3199999999999985E-002     1.2954019190658528E-008
  -2.2099999999999995E-002    -9.5004182298907836E-009
  -2.0999999999999991E-002    -3.3430541890311360E-008
  -1.9899999999999987E-002    -3.6505895195659832E-008
  -1.8799999999999983E-002    -6.5225500556209681E-009
  -1.7699999999999994E-002     4.2328593963247840E-008
  -1.6599999999999990E-002     7.1907408027982456E-008
  -1.5499999999999986E-002     4.6740037618064889E-008
  -1.4399999999999996E-002    -3.1168220004929026E-008
  -1.3299999999999992E-002    -1.0964257768364405E-007
  -1.2199999999999989E-002    -1.1646290687394867E-007
  -1.1099999999999985E-002    -1.9643525916990257E-008
  -9.9999999999999950E-003     1.2829032414174435E-007
  -8.8999999999999913E-003     2.0952819568265113E-007
  -7.7999999999999875E-003     1.2772164836860611E-007
  -6.6999999999999837E-003    -9.5954284518029453E-008
  -5.5999999999999939E-003    -3.0379433724192495E-007
  -4.4999999999999901E-003    -3.0227289471440599E-007
  -3.3999999999999864E-003    -2.7557231163655160E-008
  -2.2999999999999826E-003     3.5617213711702789E-007
  -1.1999999999999927E-003     5.3618185802406515E-007
  -9.9999999999988987E-005     2.8934923079759756E-007
   1.0000000000000148E-003    -2.9038227467026445E-007
   2.1000000000000185E-003    -7.8388455904132570E-007
   3.2000000000000084E-003    -7.2774275849951664E-007
   4.3000000000000121E-003    -1.3496586959149681E-008
   5.4000000000000159E-003     9.1786750999744982E-007
   6.5000000000000058E-003     1.3136617553755059E-006
   7.6000000000000234E-003     6.8417853071878199E-007
   8.7000000000000133E-003    -7.0230640858426341E-007
   9.8000000000000032E-003    -1.8564221591077512E-006
   1.0900000000000021E-002    -1.7371638705299119E-006
   1.2000000000000011E-002    -1.3013143984608178E-007
   1.3100000000000001E-002     1.9708697891474003E-006
   1.4200000000000018E-002     2.9225050184322754E-006
   1.5300000000000008E-002     1.6709938108760980E-006
   1.6400000000000026E-002    -1.2279991778996191E-006
   1.7500000000000016E-002    -3.7219899695628555E-006
   1.8600000000000005E-002    -3.6593485219782451E-006
   1.9700000000000023E-002    -5.6975704865180887E-007
   2.0800000000000013E-002     3.5907378332922235E-006
   2.1900000000000003E-002     5.5745922509231605E-006
   2.3000000000000020E-002     3.2958180327113951E-006
   2.4100000000000010E-002    -2.1856169496459188E-006
   2.5200000000000000E-002    -6.9097450250410475E-006
   2.6300000000000018E-002    -6.7443420448398683E-006
   2.7400000000000008E-002    -8.1654889072524384E-007
   2.8500000000000025E-002     7.0813584898132831E-006
   2.9600000000000015E-002     1.0701602150220424E-005
   3.0700000000000005E-002     6.0576198848139029E-006
   3.1800000000000023E-002    -4.7741496018716134E-006
   3.2900000000000013E-002    -1.4114236364548560E-005
   3.4000000000000002E-002    -1.3877841411158442E-005
   3.5100000000000020E-002    -2.1590396954707103E-006
   3.6200000000000010E-002     1.3947016668680590E-005
   3.7300000000000028E-002     2.2328726117848419E-005
   3.8400000000000017E-002     1.4692118384118658E-005
   3.9500000000000007E-002    -6.0347465478116646E-006
   4.0600000000000025E-002    -2.5981635189964436E-005
   4.1700000000000015E-002    -2.9432876544888131E-005
   4.2800000000000005E-002    -1.0948404451482929E-005
   4.3900000000000022E-002     1.8684866518015042E-005
   4.5000000000000012E-002     3.8401049096137285E-005
   4.6100000000000002E-002     3.1805175240151584E-005
   4.7200000000000020E-002     6.0094851050962461E-007
   4.8300000000000010E-002    -3.4350152418483049E-005
   4.9400000000000027E-002    -4.6864886826369911E-005
   5.0500000000000017E-002    -2.5187155188177712E-005
   5.1600000000000007E-002     1.7221735106431879E-005
   5.2700000000000025E-002     4.9492526159156114E-005
   5.3800000000000014E-002     4.5772547309752554E-005
   5.4900000000000004E-002     6.1261748669494409E-006
   5.6000000000000022E-002    -4.0936938603408635E-005
   5.7100000000000012E-002    -5.8400026318849996E-005
   5.8200000000000002E-002    -2.9636827093781903E-005
   5.9300000000000019E-002     2.6050871383631602E-005
   6.0400000000000009E-002     6.5368600189685822E-005
   6.1500000000000027E-002     5.3881307394476607E-005
   6.2600000000000017E-002    -4.6265458877314813E-006
   6.3700000000000007E-002    -6.6802625951822847E-005
   6.4800000000000024E-002    -8.0931436968967319E-005
   6.5900000000000014E-002    -2.8968648621230386E-005
   6.7000000000000004E-002     5.4094838560558856E-005
   6.8100000000000022E-002     1.0267369361827150E-004
   6.9200000000000012E-002     7.1758840931579471E-005
   7.0300000000000029E-002    -2.2128344426164404E-005
   7.1400000000000019E-002    -1.0627550364006311E-004
   7.2500000000000009E-002    -1.0600340465316549E-004
   7.3600000000000027E-002    -9.4752895165584050E-006
   7.4700000000000016E-002     1.1056629591621459E-004
   7.5800000000000006E-002     1.4465551066678017E-004
   7.6900000000000024E-002     3.6422992707230151E-005
   7.8000000000000014E-002    -1.5402043936774135E-004
   7.9100000000000004E-002    -2.7280699578113854E-004
   8.0200000000000021E-002    -1.8092834216076881E-004
   8.1300000000000011E-002     1.2263242388144135E-004
   8.2400000000000029E-002     4.6122126514092088E-004
   8.3500000000000019E-002     5.7481095427647233E-004
   8.4600000000000009E-002     3.0218553729355335E-004
   8.5700000000000026E-002    -2.7287428383715451E-004
   8.6800000000000016E-002    -8.3009357331320643E-004
   8.7900000000000006E-002    -9.9706789478659630E-004
   8.9000000000000024E-002    -6.0165137983858585E-004
   9.0100000000000013E-002     1.8211769929621369E-004
   9.1200000000000003E-002     9.1419823002070189E-004
   9.2300000000000021E-002     1.1635199189186096E-003
   9.3400000000000011E-002     8.0053246347233653E-004
   9.4500000000000028E-002     9.8643256933428347E-005
   9.5600000000000018E-002    -4.4525472912937403E-004
   9.6700000000000008E-002    -4.6411837683990598E-004
   9.7800000000000026E-002    -3.9675105654168874E-006
   9.8900000000000016E-002     4.7731125960126519E-004
  0.10000000000000001          4.2033617501147091E-004
  0.10110000000000002         -4.1535179479978979E-004
  0.10220000000000001         -1.7169453203678131E-003
  0.10330000000000003         -2.7553406544029713E-003
  0.10440000000000002         -2.8254629578441381E-003
  0.10550000000000001         -1.7005028203129768E-003
  0.10660000000000003          2.1662414656020701E-004
  0.10770000000000002          2.1631228737533092E-003
  0.10880000000000001          3.5332504194229841E-003
  0.10990000000000003          4.2869290336966515E-003
  0.11100000000000002          4.9601467326283455E-003
  0.11210000000000001          6.2619107775390148E-003
  0.11320000000000002          8.5374573245644569E-003
  0.11430000000000001          1.1481666937470436E-002
  0.11540000000000003          1.4321506954729557E-002
  0.11650000000000002          1.6362927854061127E-002
  0.11760000000000001          1.7542595043778419E-002
  0.11870000000000003          1.8615860491991043E-002
  0.11980000000000002          2.0855976268649101E-002
  0.12090000000000001          2.5459717959165573E-002
  0.12200000000000003          3.3033553510904312E-002
  0.12310000000000001          4.3455701321363449E-002
  0.12420000000000003          5.6149732321500778E-002
  0.12530000000000002          7.0552237331867218E-002
  0.12640000000000001          8.6495183408260345E-002
  0.12750000000000003         0.10434529930353165
  0.12860000000000002         0.12493835389614105
  0.12970000000000001         0.14944589138031006
  0.13080000000000003         0.17926383018493652
  0.13190000000000002         0.21588353812694550
  0.13300000000000001         0.26068747043609619
  0.13410000000000000         0.31470164656639099
  0.13520000000000004         0.37847656011581421
  0.13630000000000003         0.45233854651451111
  0.13740000000000002         0.53699094057083130
  0.13850000000000001         0.63416463136672974
  0.13960000000000000         0.74683231115341187
  0.14070000000000005         0.87867975234985352
  0.14180000000000004          1.0329952239990234
  0.14290000000000003          1.2117155790328979
  0.14400000000000002          1.4153044223785400
  0.14510000000000001          1.6438560485839844
  0.14620000000000000          1.8987432718276978
  0.14730000000000004          2.1838903427124023
  0.14840000000000003          2.5054907798767090
  0.14950000000000002          2.8702208995819092
  0.15060000000000001          3.2828800678253174
  0.15170000000000000          3.7449107170104980
  0.15280000000000005          4.2549381256103516
  0.15390000000000004          4.8109436035156250
  0.15500000000000003          5.4128956794738770
  0.15610000000000002          6.0639123916625977
  0.15720000000000001          6.7691025733947754
  0.15830000000000000          7.5323953628540039
  0.15940000000000004          8.3541021347045898
  0.16050000000000003          9.2296428680419922
  0.16160000000000002          10.151453971862793
  0.16270000000000001          11.112169265747070
  0.16380000000000000          12.106190681457520
  0.16490000000000005          13.130198478698730
  0.16600000000000004          14.179719924926758
  0.16710000000000003          15.245375633239746
  0.16820000000000002          16.311746597290039
  0.16930000000000001          17.358249664306641
  0.17040000000000000          18.361886978149414
  0.17150000000000004          19.301790237426758
  0.17260000000000003          20.160419464111328
  0.17370000000000002          20.920381546020508
  0.17480000000000001          21.562242507934570
  0.17590000000000000          22.061040878295898
  0.17700000000000005          22.385314941406250
  0.17810000000000004          22.500041961669922
  0.17920000000000003          22.370397567749023
  0.18030000000000002          21.967849731445312
  0.18140000000000001          21.267419815063477
  0.18250000000000000          20.247018814086914
  0.18360000000000004          18.886722564697266
  0.18470000000000003          17.163270950317383
  0.18580000000000002          15.055790901184082
  0.18690000000000001          12.544146537780762
  0.18800000000000000          9.6173467636108398
  0.18910000000000005          6.2701325416564941
  0.19020000000000004          2.5065627098083496
  0.19130000000000003         -1.6618071794509888
  0.19240000000000002         -6.2168140411376953
  0.19350000000000001         -11.134858131408691
  0.19460000000000005         -16.385360717773438
  0.19570000000000004         -21.930070877075195
  0.19680000000000003         -27.719121932983398
  0.19790000000000002         -33.694011688232422
  0.19900000000000001         -39.790084838867188
  0.20010000000000000         -45.933815002441406
  0.20120000000000005         -52.045539855957031
  0.20230000000000004         -58.041896820068359
  0.20340000000000003         -63.835880279541016
  0.20450000000000002         -69.329872131347656
  0.20560000000000000         -74.427261352539062
  0.20670000000000005         -79.035858154296875
  0.20780000000000004         -83.065635681152344
  0.20890000000000003         -86.427215576171875
