 -0.12000000000000000          0.0000000000000000
 -0.11889999999999999          0.0000000000000000
 -0.11780000000000000          0.0000000000000000
 -0.11670000000000000          0.0000000000000000
 -0.11559999999999999         -7.0799616169736623E-012
 -0.11449999999999999         -3.5579050122747091E-011
 -0.11340000000000000         -5.4049105469022862E-011
 -0.11230000000000000          6.4427650714460327E-011
 -0.11119999999999999          3.6540656611627753E-010
 -0.11009999999999999          4.0406220036537377E-010
 -0.10900000000000000         -7.1650718691529391E-010
 -0.10790000000000000         -3.0614559776154238E-009
 -0.10679999999999999         -4.1168553011061704E-009
 -0.10569999999999999          4.9648052335982129E-010
 -0.10460000000000000          1.1793043874774867E-008
 -0.10349999999999999          2.1221049806285919E-008
 -0.10239999999999999          1.2489545397897928E-008
 -0.10130000000000000         -2.3198110099542646E-008
 -0.10020000000000000         -6.7923785707080242E-008
  -9.9099999999999994E-002    -7.6438332996531244E-008
  -9.7999999999999990E-002    -9.0220613202518507E-009
  -9.6899999999999986E-002     1.1918999831550536E-007
  -9.5799999999999996E-002     2.1945776040865894E-007
  -9.4699999999999993E-002     1.7907744620515587E-007
  -9.3599999999999989E-002    -3.9469622237220392E-008
  -9.2499999999999999E-002    -3.2960048201857717E-007
  -9.1399999999999995E-002    -4.8165946964218165E-007
  -9.0299999999999991E-002    -3.3145437328130356E-007
  -8.9200000000000002E-002     9.0549583831034397E-008
  -8.8099999999999984E-002     5.4312596375893918E-007
  -8.6999999999999994E-002     7.2982163601409411E-007
  -8.5899999999999990E-002     5.1638755849126028E-007
  -8.4799999999999986E-002     3.2866360299976805E-008
  -8.3699999999999997E-002    -4.2930381027872500E-007
  -8.2599999999999993E-002    -6.3976165165513521E-007
  -8.1499999999999989E-002    -5.8164238225799636E-007
  -8.0399999999999999E-002    -4.1137667494695052E-007
  -7.9299999999999995E-002    -2.8126387974225509E-007
  -7.8199999999999992E-002    -1.9994794797639770E-007
  -7.7100000000000002E-002    -5.4246569902716146E-008
  -7.5999999999999984E-002     2.5037942918970657E-007
  -7.4899999999999994E-002     6.8389078933250858E-007
  -7.3799999999999991E-002     1.1196825653314590E-006
  -7.2699999999999987E-002     1.4436619721891475E-006
  -7.1599999999999997E-002     1.6092250234578387E-006
  -7.0499999999999993E-002     1.5786797575856326E-006
  -6.9399999999999989E-002     1.2342957234068308E-006
  -6.8300000000000000E-002     3.8076481700954901E-007
  -6.7199999999999996E-002    -1.1600802736211335E-006
  -6.6099999999999992E-002    -3.5066298096353421E-006
  -6.5000000000000002E-002    -6.8553808887372725E-006
  -6.3899999999999985E-002    -1.1730659934983123E-005
  -6.2799999999999995E-002    -1.9094186427537352E-005
  -6.1699999999999991E-002    -3.0111752494121902E-005
  -6.0599999999999994E-002    -4.5655120629817247E-005
  -5.9499999999999990E-002    -6.5879226895049214E-005
  -5.8399999999999994E-002    -9.0198060206603259E-005
  -5.7299999999999990E-002    -1.1768870899686590E-004
  -5.6199999999999986E-002    -1.4765703235752881E-004
  -5.5099999999999996E-002    -1.8007108883466572E-004
  -5.3999999999999992E-002    -2.1579499298240989E-004
  -5.2899999999999989E-002    -2.5675579672679305E-004
  -5.1799999999999985E-002    -3.0611496185883880E-004
  -5.0699999999999995E-002    -3.6827925941906869E-004
  -4.9599999999999991E-002    -4.4849893311038613E-004
  -4.8499999999999988E-002    -5.5206182878464460E-004
  -4.7399999999999998E-002    -6.8350567016750574E-004
  -4.6299999999999994E-002    -8.4640964632853866E-004
  -4.5199999999999990E-002    -1.0439737234264612E-003
  -4.4099999999999986E-002    -1.2800206895917654E-003
  -4.2999999999999997E-002    -1.5597902238368988E-003
  -4.1899999999999993E-002    -1.8901933217421174E-003
  -4.0799999999999989E-002    -2.2797551937401295E-003
  -3.9699999999999985E-002    -2.7387253940105438E-003
  -3.8599999999999995E-002    -3.2795097213238478E-003
  -3.7499999999999992E-002    -3.9170435629785061E-003
  -3.6399999999999988E-002    -4.6685901470482349E-003
  -3.5299999999999984E-002    -5.5529410019516945E-003
  -3.4199999999999994E-002    -6.5896543674170971E-003
  -3.3099999999999991E-002    -7.7991066500544548E-003
  -3.1999999999999987E-002    -9.2035187408328056E-003
  -3.0899999999999997E-002    -1.0828293859958649E-002
  -2.9799999999999993E-002    -1.2702714651823044E-002
  -2.8699999999999989E-002    -1.4859622344374657E-002
  -2.7599999999999986E-002    -1.7334524542093277E-002
  -2.6499999999999996E-002    -2.0164903253316879E-002
  -2.5399999999999992E-002    -2.3390056565403938E-002
  -2.4299999999999988E-002    -2.7051128447055817E-002
  -2.3199999999999985E-002    -3.1190831214189529E-002
  -2.2099999999999995E-002    -3.5852834582328796E-002
  -2.0999999999999991E-002    -4.1081350296735764E-002
  -1.9899999999999987E-002    -4.6921350061893463E-002
  -1.8799999999999983E-002    -5.3419090807437897E-002
  -1.7699999999999994E-002    -6.0622017830610275E-002
  -1.6599999999999990E-002    -6.8577364087104797E-002
  -1.5499999999999986E-002    -7.7329769730567932E-002
  -1.4399999999999996E-002    -8.6919017136096954E-002
  -1.3299999999999992E-002    -9.7378760576248169E-002
  -1.2199999999999989E-002   -0.10873606801033020
  -1.1099999999999985E-002   -0.12101080268621445
  -9.9999999999999950E-003   -0.13421383500099182
  -8.8999999999999913E-003   -0.14834445714950562
  -7.7999999999999875E-003   -0.16338807344436646
  -6.6999999999999837E-003   -0.17931497097015381
  -5.5999999999999939E-003   -0.19607990980148315
  -4.4999999999999901E-003   -0.21362139284610748
  -3.3999999999999864E-003   -0.23185966908931732
  -2.2999999999999826E-003   -0.25069394707679749
  -1.1999999999999927E-003   -0.26999998092651367
  -9.9999999999988987E-005   -0.28962922096252441
   1.0000000000000148E-003   -0.30940914154052734
   2.1000000000000185E-003   -0.32914400100708008
   3.2000000000000084E-003   -0.34861522912979126
   4.3000000000000121E-003   -0.36758151650428772
   5.4000000000000159E-003   -0.38577973842620850
   6.5000000000000058E-003   -0.40292751789093018
   7.6000000000000234E-003   -0.41872701048851013
   8.7000000000000133E-003   -0.43286859989166260
   9.8000000000000032E-003   -0.44503396749496460
   1.0900000000000021E-002   -0.45489972829818726
   1.2000000000000011E-002   -0.46214225888252258
   1.3100000000000001E-002   -0.46644404530525208
   1.4200000000000018E-002   -0.46750104427337646
   1.5300000000000008E-002   -0.46503031253814697
   1.6400000000000026E-002   -0.45877686142921448
   1.7500000000000016E-002   -0.44852015376091003
   1.8600000000000005E-002   -0.43408197164535522
   1.9700000000000023E-002   -0.41533476114273071
   2.0800000000000013E-002   -0.39220947027206421
   2.1900000000000003E-002   -0.36470225453376770
   2.3000000000000020E-002   -0.33287942409515381
   2.4100000000000010E-002   -0.29688149690628052
   2.5200000000000000E-002   -0.25692716240882874
   2.6300000000000018E-002   -0.21331654489040375
   2.7400000000000008E-002   -0.16643330454826355
   2.8500000000000025E-002   -0.11674366146326065
   2.9600000000000015E-002    -6.4792506396770477E-002
   3.0700000000000005E-002    -1.1198705993592739E-002
   3.1800000000000023E-002     4.3350875377655029E-002
   3.2900000000000013E-002     9.8108977079391479E-002
   3.4000000000000002E-002    0.15227758884429932
   3.5100000000000020E-002    0.20502120256423950
   3.6200000000000010E-002    0.25548246502876282
   3.7300000000000028E-002    0.30279895663261414
   3.8400000000000017E-002    0.34612023830413818
   3.9500000000000007E-002    0.38462480902671814
   4.0600000000000025E-002    0.41753816604614258
   4.1700000000000015E-002    0.44415310025215149
   4.2800000000000005E-002    0.46385055780410767
   4.3900000000000022E-002    0.47611907124519348
   4.5000000000000012E-002    0.48057198524475098
   4.6100000000000002E-002    0.47696223855018616
   4.7200000000000020E-002    0.46519577503204346
   4.8300000000000010E-002    0.44534379243850708
   4.9400000000000027E-002    0.41765284538269043
   5.0500000000000017E-002    0.38255089521408081
   5.1600000000000007E-002    0.34064847230911255
   5.2700000000000025E-002    0.29273506999015808
   5.3800000000000014E-002    0.23977178335189819
   5.4900000000000004E-002    0.18288107216358185
   5.6000000000000022E-002    0.12333285808563232
   5.7100000000000012E-002     6.2526129186153412E-002
   5.8200000000000002E-002     1.9656673539429903E-003
   5.9300000000000019E-002    -5.6765377521514893E-002
   6.0400000000000009E-002   -0.11203522980213165
   6.1500000000000027E-002   -0.16219523549079895
   6.2600000000000017E-002   -0.20561368763446808
   6.3700000000000007E-002   -0.24071115255355835
   6.4800000000000024E-002   -0.26599699258804321
   6.5900000000000014E-002   -0.28010538220405579
   6.7000000000000004E-002   -0.28182932734489441
   6.8100000000000022E-002   -0.27015247941017151
   6.9200000000000012E-002   -0.24427889287471771
   7.0300000000000029E-002   -0.20366002619266510
   7.1400000000000019E-002   -0.14801794290542603
   7.2500000000000009E-002    -7.7362447977066040E-002
   7.3600000000000027E-002     7.9985056072473526E-003
   7.4700000000000016E-002    0.10745433717966080
   7.5800000000000006E-002    0.22009262442588806
   7.6900000000000024E-002    0.34470519423484802
   7.8000000000000014E-002    0.47980025410652161
   7.9100000000000004E-002    0.62362229824066162
   8.0200000000000021E-002    0.77417963743209839
   8.1300000000000011E-002    0.92927759885787964
   8.2400000000000029E-002     1.0865548849105835
   8.3500000000000019E-002     1.2435224056243896
   8.4600000000000009E-002     1.3976062536239624
   8.5700000000000026E-002     1.5461939573287964
   8.6800000000000016E-002     1.6866853237152100
   8.7900000000000006E-002     1.8165436983108521
   8.9000000000000024E-002     1.9333447217941284
   9.0100000000000013E-002     2.0348219871520996
   9.1200000000000003E-002     2.1189088821411133
   9.2300000000000021E-002     2.1837780475616455
   9.3400000000000011E-002     2.2278795242309570
   9.4500000000000028E-002     2.2499740123748779
   9.5600000000000018E-002     2.2491586208343506
   9.6700000000000008E-002     2.2248837947845459
   9.7800000000000026E-002     2.1769630908966064
   9.8900000000000016E-002     2.1055774688720703
  0.10000000000000001          2.0112726688385010
  0.10110000000000002          1.8949512243270874
  0.10220000000000001          1.7578560113906860
  0.10330000000000003          1.6015467643737793
  0.10440000000000002          1.4278696775436401
  0.10550000000000001          1.2389222383499146
  0.10660000000000003          1.0370149612426758
  0.10770000000000002         0.82463091611862183
  0.10880000000000001         0.60438203811645508
  0.10990000000000003         0.37896317243576050
  0.11100000000000002         0.15110442042350769
  0.11210000000000001         -7.6475434005260468E-002
  0.11320000000000002        -0.30111351609230042
  0.11430000000000001        -0.52024650573730469
  0.11540000000000003        -0.73144900798797607
  0.11650000000000002        -0.93246912956237793
  0.11760000000000001         -1.1212607622146606
  0.11870000000000003         -1.2960088253021240
  0.11980000000000002         -1.4551496505737305
  0.12090000000000001         -1.5973882675170898
  0.12200000000000003         -1.7217099666595459
  0.12310000000000001         -1.8273857831954956
  0.12420000000000003         -1.9139707088470459
  0.12530000000000002         -1.9812960624694824
  0.12640000000000001         -2.0294585227966309
  0.12750000000000003         -2.0588066577911377
  0.12860000000000002         -2.0699245929718018
  0.12970000000000001         -2.0636124610900879
  0.13080000000000003         -2.0408599376678467
  0.13190000000000002         -2.0028173923492432
  0.13300000000000001         -1.9507666826248169
  0.13410000000000000         -1.8860931396484375
  0.13520000000000004         -1.8102614879608154
  0.13630000000000003         -1.7247902154922485
  0.13740000000000002         -1.6312234401702881
  0.13850000000000001         -1.5311024188995361
  0.13960000000000000         -1.4259400367736816
  0.14070000000000005         -1.3172003030776978
  0.14180000000000004         -1.2062821388244629
  0.14290000000000003         -1.0945053100585938
  0.14400000000000002        -0.98309665918350220
  0.14510000000000001        -0.87317699193954468
  0.14620000000000000        -0.76575052738189697
  0.14730000000000004        -0.66169965267181396
  0.14840000000000003        -0.56178432703018188
  0.14950000000000002        -0.46664369106292725
  0.15060000000000001        -0.37679857015609741
  0.15170000000000000        -0.29265376925468445
  0.15280000000000005        -0.21450182795524597
  0.15390000000000004        -0.14252941310405731
  0.15500000000000003         -7.6825961470603943E-002
  0.15610000000000002         -1.7393581569194794E-002
  0.15720000000000001          3.5843063145875931E-002
  0.15830000000000000          8.3027370274066925E-002
  0.15940000000000004         0.12436141073703766
  0.16050000000000003         0.16009637713432312
  0.16160000000000002         0.19052325189113617
  0.16270000000000001         0.21596369147300720
  0.16380000000000000         0.23676185309886932
  0.16490000000000005         0.25327643752098083
  0.16600000000000004         0.26587301492691040
  0.16710000000000003         0.27491754293441772
  0.16820000000000002         0.28077137470245361
  0.16930000000000001         0.28378796577453613
  0.17040000000000000         0.28430983424186707
  0.17150000000000004         0.28266456723213196
  0.17260000000000003         0.27916079759597778
  0.17370000000000002         0.27408498525619507
  0.17480000000000001         0.26770079135894775
  0.17590000000000000         0.26025059819221497
  0.17700000000000005         0.25195717811584473
  0.17810000000000004         0.24302408099174500
  0.17920000000000003         0.23363398015499115
  0.18030000000000002         0.22394700348377228
  0.18140000000000001         0.21410100162029266
  0.18250000000000000         0.20421454310417175
  0.18360000000000004         0.19439044594764709
  0.18470000000000003         0.18471767008304596
  0.18580000000000002         0.17527069151401520
  0.18690000000000001         0.16610804200172424
  0.18800000000000000         0.15727268159389496
  0.18910000000000005         0.14879477024078369
  0.19020000000000004         0.14069566130638123
  0.19130000000000003         0.13299070298671722
  0.19240000000000002         0.12568938732147217
  0.19350000000000001         0.11879383772611618
  0.19460000000000005         0.11229807138442993
  0.19570000000000004         0.10618928819894791
  0.19680000000000003         0.10045084357261658
  0.19790000000000002          9.5064960420131683E-002
  0.19900000000000001          9.0013697743415833E-002
  0.20010000000000000          8.5278473794460297E-002
  0.20120000000000005          8.0839335918426514E-002
  0.20230000000000004          7.6675228774547577E-002
  0.20340000000000003          7.2765469551086426E-002
  0.20450000000000002          6.9091282784938812E-002
  0.20560000000000000          6.5636552870273590E-002
  0.20670000000000005          6.2387488782405853E-002
  0.20780000000000004          5.9331707656383514E-002
  0.20890000000000003          5.6457508355379105E-002
