 -0.12000000000000000          0.0000000000000000
 -0.11889999999999999          0.0000000000000000
 -0.11780000000000000          0.0000000000000000
 -0.11670000000000000          0.0000000000000000
 -0.11559999999999999          0.0000000000000000
 -0.11449999999999999          0.0000000000000000
 -0.11340000000000000          0.0000000000000000
 -0.11230000000000000          0.0000000000000000
 -0.11119999999999999          0.0000000000000000
 -0.11009999999999999         -2.4680975967957634E-023
 -0.10900000000000000          5.7011267921135645E-023
 -0.10790000000000000         -4.0957403239230366E-022
 -0.10679999999999999         -6.5013023608525974E-021
 -0.10569999999999999         -1.0933132115036066E-020
 -0.10460000000000000          6.0032245215123849E-020
 -0.10349999999999999          2.1095182618921538E-019
 -0.10239999999999999         -2.5600702291118047E-019
 -0.10130000000000000         -2.4341756146279184E-018
 -0.10020000000000000         -2.8599025216469634E-018
  -9.9099999999999994E-002     1.1814884559710299E-017
  -9.7999999999999990E-002     4.3804427981264350E-017
  -9.6899999999999986E-002     2.1365324142248507E-017
  -9.5799999999999996E-002    -1.9837498389805913E-016
  -9.4699999999999993E-002    -5.2775954789631603E-016
  -9.3599999999999989E-002    -1.4935017274885832E-016
  -9.2499999999999999E-002     2.0739904527800187E-015
  -9.1399999999999995E-002     4.9100297666668929E-015
  -9.0299999999999991E-002     1.6646911095351768E-015
  -8.9200000000000002E-002    -1.5461856309726719E-014
  -8.8099999999999984E-002    -3.7146440166457156E-014
  -8.6999999999999994E-002    -1.9847061074143059E-014
  -8.5899999999999990E-002     8.5551953975943063E-014
  -8.4799999999999986E-002     2.3163876415946416E-013
  -8.3699999999999997E-002     1.8377203784333135E-013
  -8.2599999999999993E-002    -3.4180731162125610E-013
  -8.1499999999999989E-002    -1.1879434068384764E-012
  -8.0399999999999999E-002    -1.2930549643172529E-012
  -7.9299999999999995E-002     8.0793141274404512E-013
  -7.8199999999999992E-002     4.9439974683651577E-012
  -7.7100000000000002E-002     7.1052907481272687E-012
  -7.5999999999999984E-002     6.9408985937241541E-013
  -7.4899999999999994E-002    -1.6133469560308811E-011
  -7.3799999999999991E-002    -3.1070205436245502E-011
  -7.2699999999999987E-002    -1.8641605620262069E-011
  -7.1599999999999997E-002     3.7277552572545503E-011
  -7.0499999999999993E-002     1.0828788560290903E-010
  -6.9399999999999989E-002     1.1137381294989979E-010
  -6.8300000000000000E-002    -3.4229220152726114E-011
  -6.7199999999999996E-002    -2.9321267636106541E-010
  -6.6099999999999992E-002    -4.4273776311776203E-010
  -6.5000000000000002E-002    -1.8077077335032499E-010
  -6.3899999999999985E-002     5.6021248751036978E-010
  -6.2799999999999995E-002     1.3136223220300280E-009
  -6.1699999999999991E-002     1.1840731728440801E-009
  -6.0599999999999994E-002    -4.3399475679883892E-010
  -5.9499999999999990E-002    -2.9028037751288593E-009
  -5.8399999999999994E-002    -4.1064134315149659E-009
  -5.7299999999999990E-002    -1.7457161272105282E-009
  -5.6199999999999986E-002     4.2244181486239540E-009
  -5.5099999999999996E-002     9.9752259785645947E-009
  -5.3999999999999992E-002     9.3395664535478318E-009
  -5.2899999999999989E-002    -1.1572794944569864E-009
  -5.1799999999999985E-002    -1.7023340959099187E-008
  -5.0699999999999995E-002    -2.5703238648588922E-008
  -4.9599999999999991E-002    -1.4676371229427332E-008
  -4.8499999999999988E-002     1.6113030909536974E-008
  -4.7399999999999998E-002     4.7789335155812296E-008
  -4.6299999999999994E-002     5.1413525881116584E-008
  -4.5199999999999990E-002     1.0714457765459429E-008
  -4.4099999999999986E-002    -5.7090986160801549E-008
  -4.2999999999999997E-002    -1.0311199361012768E-007
  -4.1899999999999993E-002    -7.8730188590725447E-008
  -4.0799999999999989E-002     2.0532132438688677E-008
  -3.9699999999999985E-002     1.3544286048272625E-007
  -3.8599999999999995E-002     1.7418361153431761E-007
  -3.7499999999999992E-002     8.2546236512825999E-008
  -3.6399999999999988E-002    -9.8039159013296739E-008
  -3.5299999999999984E-002    -2.4037845491875487E-007
  -3.4199999999999994E-002    -2.1946408423900721E-007
  -3.3099999999999991E-002    -2.0770970721173398E-008
  -3.1999999999999987E-002     2.2252250175824884E-007
  -3.0899999999999997E-002     3.1395879318552034E-007
  -2.9799999999999993E-002     1.5310550338654139E-007
  -2.8699999999999989E-002    -1.5594415003761242E-007
  -2.7599999999999986E-002    -3.5632865547086112E-007
  -2.6499999999999996E-002    -2.4029372980294283E-007
  -2.5399999999999992E-002     1.4757812039078999E-007
  -2.4299999999999988E-002     4.9080119879363338E-007
  -2.3199999999999985E-002     4.2740674643937382E-007
  -2.2099999999999995E-002    -1.2291805262520938E-007
  -2.0999999999999991E-002    -8.0197804663839634E-007
  -1.9899999999999987E-002    -1.0109129107149784E-006
  -1.8799999999999983E-002    -3.7745888903373270E-007
  -1.7699999999999994E-002     8.4912539932702202E-007
  -1.6599999999999990E-002     1.8347293462284142E-006
  -1.5499999999999986E-002     1.7010037254294730E-006
  -1.4399999999999996E-002     2.3296405515793595E-007
  -1.3299999999999992E-002    -1.7937188658834202E-006
  -1.2199999999999989E-002    -3.0100206913630245E-006
  -1.1099999999999985E-002    -2.3946756755321985E-006
  -9.9999999999999950E-003    -1.0626676782976574E-007
  -8.8999999999999913E-003     2.4693076738913078E-006
  -7.7999999999999875E-003     3.6106666811974719E-006
  -6.6999999999999837E-003     2.5177625957439886E-006
  -5.5999999999999939E-003    -1.6645497424860878E-008
  -4.4999999999999901E-003    -2.1308687792043202E-006
  -3.3999999999999864E-003    -2.3318382318393560E-006
  -2.2999999999999826E-003    -7.6745584465243155E-007
  -1.1999999999999927E-003     7.7130903264333028E-007
  -9.9999999999988987E-005     3.2477987588208634E-007
   1.0000000000000148E-003    -2.3148922991822474E-006
   2.1000000000000185E-003    -4.8646757022652309E-006
   3.2000000000000084E-003    -3.9509009184257593E-006
   4.3000000000000121E-003     2.0246045551175484E-006
   5.4000000000000159E-003     1.0653737263055518E-005
   6.5000000000000058E-003     1.6023725038394332E-005
   7.6000000000000234E-003     1.2312924809521064E-005
   8.7000000000000133E-003    -1.5750157444927027E-006
   9.8000000000000032E-003    -1.9697792595252395E-005
   1.0900000000000021E-002    -3.1389237847179174E-005
   1.2000000000000011E-002    -2.7493048037285917E-005
   1.3100000000000001E-002    -6.7988503360538743E-006
   1.4200000000000018E-002     2.1774276319774799E-005
   1.5300000000000008E-002     4.3318916141288355E-005
   1.6400000000000026E-002     4.5347467676037923E-005
   1.7500000000000016E-002     2.5335779355373234E-005
   1.8600000000000005E-002    -7.4744011726579629E-006
   1.9700000000000023E-002    -3.7286645238054916E-005
   2.0800000000000013E-002    -5.0681450375122949E-005
   2.1900000000000003E-002    -4.3606421968434006E-005
   2.3000000000000020E-002    -2.2243808416533284E-005
   2.4100000000000010E-002     2.1835460302099818E-006
   2.5200000000000000E-002     2.0647556084441021E-005
   2.6300000000000018E-002     3.0653030989924446E-005
   2.7400000000000008E-002     3.5313783882884309E-005
   2.8500000000000025E-002     3.8749269151594490E-005
   2.9600000000000015E-002     4.1714214603416622E-005
   3.0700000000000005E-002     4.0541268390370533E-005
   3.1800000000000023E-002     2.9505452403100207E-005
   3.2900000000000013E-002     4.2387055145809427E-006
   3.4000000000000002E-002    -3.6179924791213125E-005
   3.5100000000000020E-002    -8.8699322077445686E-005
   3.6200000000000010E-002    -1.4564982848241925E-004
   3.7300000000000028E-002    -1.9277495448477566E-004
   3.8400000000000017E-002    -2.0755008154083043E-004
   3.9500000000000007E-002    -1.6186799621209502E-004
   4.0600000000000025E-002    -3.2211777579504997E-005
   4.1700000000000015E-002     1.8455488316249102E-004
   4.2800000000000005E-002     4.5755447354167700E-004
   4.3900000000000022E-002     7.2007859125733376E-004
   4.5000000000000012E-002     8.8427943410351872E-004
   4.6100000000000002E-002     8.6744502186775208E-004
   4.7200000000000020E-002     6.1707623535767198E-004
   4.8300000000000010E-002     1.2205771054141223E-004
   4.9400000000000027E-002    -5.9395760763436556E-004
   5.0500000000000017E-002    -1.4892015606164932E-003
   5.1600000000000007E-002    -2.5171644520014524E-003
   5.2700000000000025E-002    -3.6287677939981222E-003
   5.3800000000000014E-002    -4.7680442221462727E-003
   5.4900000000000004E-002    -5.8756717480719090E-003
   5.6000000000000022E-002    -6.9117499515414238E-003
   5.7100000000000012E-002    -7.8938025981187820E-003
   5.8200000000000002E-002    -8.9285681024193764E-003
   5.9300000000000019E-002    -1.0211633518338203E-002
   6.0400000000000009E-002    -1.1984573677182198E-002
   6.1500000000000027E-002    -1.4467353932559490E-002
   6.2600000000000017E-002    -1.7805336043238640E-002
   6.3700000000000007E-002    -2.2067384794354439E-002
   6.4800000000000024E-002    -2.7302118018269539E-002
   6.5900000000000014E-002    -3.3621042966842651E-002
   6.7000000000000004E-002    -4.1255336254835129E-002
   6.8100000000000022E-002    -5.0547156482934952E-002
   6.9200000000000012E-002    -6.1879828572273254E-002
   7.0300000000000029E-002    -7.5595982372760773E-002
   7.1400000000000019E-002    -9.1967731714248657E-002
   7.2500000000000009E-002   -0.11125332117080688
   7.3600000000000027E-002   -0.13381716609001160
   7.4700000000000016E-002   -0.16024056077003479
   7.5800000000000006E-002   -0.19134816527366638
   7.6900000000000024E-002   -0.22812175750732422
   7.8000000000000014E-002   -0.27154749631881714
   7.9100000000000004E-002   -0.32248899340629578
   8.0200000000000021E-002   -0.38167360424995422
   8.1300000000000011E-002   -0.44981437921524048
   8.2400000000000029E-002   -0.52780687808990479
   8.3500000000000019E-002   -0.61689186096191406
   8.4600000000000009E-002   -0.71868652105331421
   8.5700000000000026E-002   -0.83506065607070923
   8.6800000000000016E-002   -0.96791768074035645
   8.7900000000000006E-002    -1.1189990043640137
   8.9000000000000024E-002    -1.2897766828536987
   9.0100000000000013E-002    -1.4814966917037964
   9.1200000000000003E-002    -1.6953104734420776
   9.2300000000000021E-002    -1.9324108362197876
   9.3400000000000011E-002    -2.1941192150115967
   9.4500000000000028E-002    -2.4818687438964844
   9.5600000000000018E-002    -2.7971072196960449
   9.6700000000000008E-002    -3.1411454677581787
   9.7800000000000026E-002    -3.5150015354156494
   9.8900000000000016E-002    -3.9192109107971191
  0.10000000000000001         -4.3536691665649414
  0.10110000000000002         -4.8175067901611328
  0.10220000000000001         -5.3089995384216309
  0.10330000000000003         -5.8256244659423828
  0.10440000000000002         -6.3641219139099121
  0.10550000000000001         -6.9205603599548340
  0.10660000000000003         -7.4904766082763672
  0.10770000000000002         -8.0687179565429688
  0.10880000000000001         -8.6493120193481445
  0.10990000000000003         -9.2251491546630859
  0.11100000000000002         -9.7877712249755859
  0.11210000000000001         -10.327186584472656
  0.11320000000000002         -10.831977844238281
  0.11430000000000001         -11.289338111877441
  0.11540000000000003         -11.685659408569336
  0.11650000000000002         -12.006661415100098
  0.11760000000000001         -12.237672805786133
  0.11870000000000003         -12.363940238952637
  0.11980000000000002         -12.370425224304199
  0.12090000000000001         -12.241992950439453
  0.12200000000000003         -11.963273048400879
  0.12310000000000001         -11.519068717956543
  0.12420000000000003         -10.894671440124512
  0.12530000000000002         -10.076344490051270
  0.12640000000000001         -9.0522699356079102
  0.12750000000000003         -7.8129134178161621
  0.12860000000000002         -6.3516659736633301
  0.12970000000000001         -4.6650929450988770
  0.13080000000000003         -2.7527928352355957
  0.13190000000000002        -0.61750662326812744
  0.13300000000000001          1.7342063188552856
  0.13410000000000000          4.2924237251281738
  0.13520000000000004          7.0429024696350098
  0.13630000000000003          9.9663534164428711
  0.13740000000000002          13.039110183715820
  0.13850000000000001          16.232276916503906
  0.13960000000000000          19.512649536132812
  0.14070000000000005          22.842847824096680
  0.14180000000000004          26.181905746459961
  0.14290000000000003          29.485744476318359
  0.14400000000000002          32.707736968994141
  0.14510000000000001          35.798603057861328
  0.14620000000000000          38.708095550537109
  0.14730000000000004          41.385478973388672
  0.14840000000000003          43.779846191406250
  0.14950000000000002          45.842025756835938
  0.15060000000000001          47.524723052978516
  0.15170000000000000          48.783664703369141
  0.15280000000000005          49.579212188720703
  0.15390000000000004          49.876613616943359
  0.15500000000000003          49.647312164306641
  0.15610000000000002          48.869956970214844
  0.15720000000000001          47.531181335449219
  0.15830000000000000          45.625545501708984
  0.15940000000000004          43.156738281250000
  0.16050000000000003          40.137180328369141
  0.16160000000000002          36.588146209716797
  0.16270000000000001          32.540119171142578
  0.16380000000000000          28.032369613647461
  0.16490000000000005          23.112415313720703
  0.16600000000000004          17.835397720336914
  0.16710000000000003          12.262728691101074
  0.16820000000000002          6.4616718292236328
  0.16930000000000001         0.50449663400650024
  0.17040000000000000         -5.5325598716735840
  0.17150000000000004         -11.570602416992188
  0.17260000000000003         -17.529850006103516
  0.17370000000000002         -23.330898284912109
  0.17480000000000001         -28.896892547607422
  0.17590000000000000         -34.154388427734375
  0.17700000000000005         -39.034961700439453
  0.17810000000000004         -43.476161956787109
  0.17920000000000003         -47.422615051269531
  0.18030000000000002         -50.826744079589844
  0.18140000000000001         -53.649486541748047
  0.18250000000000000         -55.861019134521484
  0.18360000000000004         -57.440776824951172
  0.18470000000000003         -58.378150939941406
  0.18580000000000002         -58.672504425048828
  0.18690000000000001         -58.333339691162109
  0.18800000000000000         -57.380035400390625
  0.18910000000000005         -55.841186523437500
  0.19020000000000004         -53.754138946533203
  0.19130000000000003         -51.162967681884766
  0.19240000000000002         -48.117572784423828
  0.19350000000000001         -44.673091888427734
  0.19460000000000005         -40.887916564941406
  0.19570000000000004         -36.823432922363281
  0.19680000000000003         -32.542682647705078
  0.19790000000000002         -28.109636306762695
  0.19900000000000001         -23.587430953979492
  0.20010000000000000         -19.037349700927734
  0.20120000000000005         -14.517879486083984
  0.20230000000000004         -10.083671569824219
  0.20340000000000003         -5.7845444679260254
  0.20450000000000002         -1.6656093597412109
  0.20560000000000000          2.2340724468231201
  0.20670000000000005          5.8812179565429688
  0.20780000000000004          9.2494058609008789
  0.20890000000000003          12.318385124206543
