 -0.12000000000000000          0.0000000000000000
 -0.11889999999999999          0.0000000000000000
 -0.11780000000000000          0.0000000000000000
 -0.11670000000000000          0.0000000000000000
 -0.11559999999999999          0.0000000000000000
 -0.11449999999999999          0.0000000000000000
 -0.11340000000000000          0.0000000000000000
 -0.11230000000000000          0.0000000000000000
 -0.11119999999999999          0.0000000000000000
 -0.11009999999999999          3.2033417404361290E-022
 -0.10900000000000000          4.0328916115210103E-021
 -0.10790000000000000          2.2314678517019701E-020
 -0.10679999999999999          6.3631068953446257E-020
 -0.10569999999999999          4.6576272008525003E-020
 -0.10460000000000000         -3.7851102406421190E-019
 -0.10349999999999999         -1.7632839545767318E-018
 -0.10239999999999999         -3.6827321641779622E-018
 -0.10130000000000000         -2.0801751928845716E-018
 -0.10020000000000000          1.1920102760807656E-017
  -9.9099999999999994E-002     4.3941432251760283E-017
  -9.7999999999999990E-002     7.3312389033309303E-017
  -9.6899999999999986E-002     2.9747701154619972E-017
  -9.5799999999999996E-002    -1.8193137447433379E-016
  -9.4699999999999993E-002    -5.5614102792040667E-016
  -9.3599999999999989E-002    -7.9345430169220320E-016
  -9.2499999999999999E-002    -2.5056542186894528E-016
  -9.1399999999999995E-002     1.6459970923892744E-015
  -9.0299999999999991E-002     4.4354549940122008E-015
  -8.9200000000000002E-002     5.7175820847331967E-015
  -8.8099999999999984E-002     1.6562095568760826E-015
  -8.6999999999999994E-002    -9.9703824704830066E-015
  -8.5899999999999990E-002    -2.5017802499777142E-014
  -8.4799999999999986E-002    -3.0475056207951781E-014
  -8.3699999999999997E-002    -9.6286885325276746E-015
  -8.2599999999999993E-002     4.3299534828932992E-014
  -8.1499999999999989E-002     1.0634371936648832E-013
  -8.0399999999999999E-002     1.2706292452663998E-013
  -7.9299999999999995E-002     4.8714037090193812E-014
  -7.8199999999999992E-002    -1.3827188092424558E-013
  -7.7100000000000002E-002    -3.5152141072102017E-013
  -7.5999999999999984E-002    -4.2645669439365930E-013
  -7.4899999999999994E-002    -2.0715512096501632E-013
  -7.3799999999999991E-002     3.1485206694430168E-013
  -7.2699999999999987E-002     9.0942959543247048E-013
  -7.1599999999999997E-002     1.1671506859947667E-012
  -7.0499999999999993E-002     7.3063674251375166E-013
  -6.9399999999999989E-002    -4.1532223623783060E-013
  -6.8300000000000000E-002    -1.7981575430037200E-012
  -6.7199999999999996E-002    -2.6121411891150137E-012
  -6.6099999999999992E-002    -2.1444573547468870E-012
  -6.5000000000000002E-002    -2.4275785374949788E-013
  -6.3899999999999985E-002     2.4657654390525252E-012
  -6.2799999999999995E-002     4.7539867008283831E-012
  -6.1699999999999991E-002     5.2909916031795845E-012
  -6.0599999999999994E-002     3.2312581429994047E-012
  -5.9499999999999990E-002    -1.2983286321044396E-012
  -5.8399999999999994E-002    -6.9249354514577810E-012
  -5.7299999999999990E-002    -1.1112799049028954E-011
  -5.6199999999999986E-002    -1.0867746806642042E-011
  -5.5099999999999996E-002    -4.2409188140413168E-012
  -5.3999999999999992E-002     7.7641140044937274E-012
  -5.2899999999999989E-002     2.0121598831579490E-011
  -5.1799999999999985E-002     2.5090138300321030E-011
  -5.0699999999999995E-002     1.6366956401281385E-011
  -4.9599999999999991E-002    -5.7051603025159991E-012
  -4.8499999999999988E-002    -3.1577015308092982E-011
  -4.7399999999999998E-002    -4.5786027746963498E-011
  -4.6299999999999994E-002    -3.5786203861354338E-011
  -4.5199999999999990E-002    -1.4166412183949650E-012
  -4.4099999999999986E-002     4.1866139027790794E-011
  -4.2999999999999997E-002     6.9790340173625509E-011
  -4.1899999999999993E-002     6.3141401829280852E-011
  -4.0799999999999989E-002     2.0151755264485871E-011
  -3.9699999999999985E-002    -4.0871910023110303E-011
  -3.8599999999999995E-002    -9.0522284112992679E-011
  -3.7499999999999992E-002    -1.0298267100194991E-010
  -3.6399999999999988E-002    -6.7699255923425739E-011
  -3.5299999999999984E-002     6.8370456865474161E-012
  -3.4199999999999994E-002     9.5826513391017443E-011
  -3.3099999999999991E-002     1.6377128819744513E-010
  -3.1999999999999987E-002     1.7269179142243019E-010
  -3.0899999999999997E-002     9.6277055772198139E-011
  -2.9799999999999993E-002    -6.0036177418343328E-011
  -2.8699999999999989E-002    -2.4345331306463436E-010
  -2.7599999999999986E-002    -3.6064540243074816E-010
  -2.6499999999999996E-002    -3.1765362562552468E-010
  -2.5399999999999992E-002    -8.0234513477606129E-011
  -2.4299999999999988E-002     2.8168367638414793E-010
  -2.3199999999999985E-002     6.0368071652661115E-010
  -2.2099999999999995E-002     6.9997613261207903E-010
  -2.0999999999999991E-002     4.6565151734512256E-010
  -1.9899999999999987E-002    -5.2522628607443167E-011
  -1.8799999999999983E-002    -6.6279481902853377E-010
  -1.7699999999999994E-002    -1.1113721054556436E-009
  -1.6599999999999990E-002    -1.1939084165746294E-009
  -1.5499999999999986E-002    -8.3621370938757877E-010
  -1.4399999999999996E-002    -1.1305045094500699E-010
  -1.3299999999999992E-002     7.8501799505303893E-010
  -1.2199999999999989E-002     1.6066118435631438E-009
  -1.1099999999999985E-002     2.0970327696545610E-009
  -9.9999999999999950E-003     2.0594210781155198E-009
  -8.8999999999999913E-003     1.4218328736603780E-009
  -7.7999999999999875E-003     2.8915070338086934E-010
  -6.6999999999999837E-003    -1.0622578372476710E-009
  -5.5999999999999939E-003    -2.2748569694641674E-009
  -4.4999999999999901E-003    -3.0597475664251306E-009
  -3.3999999999999864E-003    -3.3249736297591426E-009
  -2.2999999999999826E-003    -3.1924134447081087E-009
  -1.1999999999999927E-003    -2.8695839038306303E-009
  -9.9999999999988987E-005    -2.4335706783062960E-009
   1.0000000000000148E-003    -1.6518559853295756E-009
   2.1000000000000185E-003     3.3677373389995324E-011
   3.2000000000000084E-003     3.2989033726948946E-009
   4.3000000000000121E-003     8.5442168895610848E-009
   5.4000000000000159E-003     1.5444813428189264E-008
   6.5000000000000058E-003     2.2622131723437633E-008
   7.6000000000000234E-003     2.7597259588674206E-008
   8.7000000000000133E-003     2.7093093990515627E-008
   9.8000000000000032E-003     1.7595949586279858E-008
   1.0900000000000021E-002    -4.0664009937074752E-009
   1.2000000000000011E-002    -4.0428624004107405E-008
   1.3100000000000001E-002    -9.3561105529715860E-008
   1.4200000000000018E-002    -1.6565614657793049E-007
   1.5300000000000008E-002    -2.5973605488616158E-007
   1.6400000000000026E-002    -3.8013308767403942E-007
   1.7500000000000016E-002    -5.3256900400810991E-007
   1.8600000000000005E-002    -7.2396471750835190E-007
   1.9700000000000023E-002    -9.6232440682797460E-007
   2.0800000000000013E-002    -1.2570062608574517E-006
   2.1900000000000003E-002    -1.6194481986531173E-006
   2.3000000000000020E-002    -2.0641462015191792E-006
   2.4100000000000010E-002    -2.6095931389136240E-006
   2.5200000000000000E-002    -3.2790132991067367E-006
   2.6300000000000018E-002    -4.1009561755345203E-006
   2.7400000000000008E-002    -5.1099405027343892E-006
   2.8500000000000025E-002    -6.3473016780335456E-006
   2.9600000000000015E-002    -7.8622433647979051E-006
   3.0700000000000005E-002    -9.7129905043402687E-006
   3.1800000000000023E-002    -1.1967978025495540E-005
   3.2900000000000013E-002    -1.4707096852362156E-005
   3.4000000000000002E-002    -1.8023189113591798E-005
   3.5100000000000020E-002    -2.2023968995199539E-005
   3.6200000000000010E-002    -2.6834544769371860E-005
   3.7300000000000028E-002    -3.2600546546746045E-005
   3.8400000000000017E-002    -3.9491726056439802E-005
   3.9500000000000007E-002    -4.7705674660392106E-005
   4.0600000000000025E-002    -5.7471359468763694E-005
   4.1700000000000015E-002    -6.9052104663569480E-005
   4.2800000000000005E-002    -8.2748207205440849E-005
   4.3900000000000022E-002    -9.8899676231667399E-005
   4.5000000000000012E-002    -1.1788969277404249E-004
   4.6100000000000002E-002    -1.4014923362992704E-004
   4.7200000000000020E-002    -1.6616242646705359E-004
   4.8300000000000010E-002    -1.9647197041194886E-004
   4.9400000000000027E-002    -2.3168353072833270E-004
   5.0500000000000017E-002    -2.7246915851719677E-004
   5.1600000000000007E-002    -3.1956980819813907E-004
   5.2700000000000025E-002    -3.7379798595793545E-004
   5.3800000000000014E-002    -4.3604060192592442E-004
   5.4900000000000004E-002    -5.0726172048598528E-004
   5.6000000000000022E-002    -5.8850436471402645E-004
   5.7100000000000012E-002    -6.8089051637798548E-004
   5.8200000000000002E-002    -7.8561861300840974E-004
   5.9300000000000019E-002    -9.0395967708900571E-004
   6.0400000000000009E-002    -1.0372510878369212E-003
   6.1500000000000027E-002    -1.1868895962834358E-003
   6.2600000000000017E-002    -1.3543232344090939E-003
   6.3700000000000007E-002    -1.5410406049340963E-003
   6.4800000000000024E-002    -1.7485583666712046E-003
   6.5900000000000014E-002    -1.9784045871347189E-003
   6.7000000000000004E-002    -2.2320991847664118E-003
   6.8100000000000022E-002    -2.5111299473792315E-003
   6.9200000000000012E-002    -2.8169245924800634E-003
   7.0300000000000029E-002    -3.1508216634392738E-003
   7.1400000000000019E-002    -3.5140381660312414E-003
   7.2500000000000009E-002    -3.9076362736523151E-003
   7.3600000000000027E-002    -4.3324907310307026E-003
   7.4700000000000016E-002    -4.7892471775412560E-003
   7.5800000000000006E-002    -5.2782832644879818E-003
   7.6900000000000024E-002    -5.7996655814349651E-003
   7.8000000000000014E-002    -6.3531068153679371E-003
   7.9100000000000004E-002    -6.9379243068397045E-003
   8.0200000000000021E-002    -7.5530009344220161E-003
   8.1300000000000011E-002    -8.1967450678348541E-003
   8.2400000000000029E-002    -8.8670542463660240E-003
   8.3500000000000019E-002    -9.5612807199358940E-003
   8.4600000000000009E-002    -1.0276210494339466E-002
   8.5700000000000026E-002    -1.1008034460246563E-002
   8.6800000000000016E-002    -1.1752341873943806E-002
   8.7900000000000006E-002    -1.2504115700721741E-002
   8.9000000000000024E-002    -1.3257737271487713E-002
   9.0100000000000013E-002    -1.4007006771862507E-002
   9.1200000000000003E-002    -1.4745157212018967E-002
   9.2300000000000021E-002    -1.5464899130165577E-002
   9.3400000000000011E-002    -1.6158459708094597E-002
   9.4500000000000028E-002    -1.6817651689052582E-002
   9.5600000000000018E-002    -1.7433935776352882E-002
   9.6700000000000008E-002    -1.7998522147536278E-002
   9.7800000000000026E-002    -1.8502468243241310E-002
   9.8900000000000016E-002    -1.8936784937977791E-002
  0.10000000000000001         -1.9292557612061501E-002
  0.10110000000000002         -1.9561078399419785E-002
  0.10220000000000001         -1.9733959808945656E-002
  0.10330000000000003         -1.9803270697593689E-002
  0.10440000000000002         -1.9761679694056511E-002
  0.10550000000000001         -1.9602593034505844E-002
  0.10660000000000003         -1.9320292398333549E-002
  0.10770000000000002         -1.8910063430666924E-002
  0.10880000000000001         -1.8368335440754890E-002
  0.10990000000000003         -1.7692778259515762E-002
  0.11100000000000002         -1.6882410272955894E-002
  0.11210000000000001         -1.5937667340040207E-002
  0.11320000000000002         -1.4860476367175579E-002
  0.11430000000000001         -1.3654289767146111E-002
  0.11540000000000003         -1.2324104085564613E-002
  0.11650000000000002         -1.0876450687646866E-002
  0.11760000000000001         -9.3193734064698219E-003
  0.11870000000000003         -7.6623847708106041E-003
  0.11980000000000002         -5.9163952246308327E-003
  0.12090000000000001         -4.0936130098998547E-003
  0.12200000000000003         -2.2074168082326651E-003
  0.12310000000000001         -2.7220280026085675E-004
  0.12420000000000003          1.6967888223007321E-003
  0.12530000000000002          3.6836585495620966E-003
  0.12640000000000001          5.6720445863902569E-003
  0.12750000000000003          7.6453317888081074E-003
  0.12860000000000002          9.5868622884154320E-003
  0.12970000000000001          1.1480147950351238E-002
  0.13080000000000003          1.3309084810316563E-002
  0.13190000000000002          1.5058163553476334E-002
  0.13300000000000001          1.6712684184312820E-002
  0.13410000000000000          1.8258951604366302E-002
  0.13520000000000004          1.9684474915266037E-002
  0.13630000000000003          2.0978121086955070E-002
  0.13740000000000002          2.2130258381366730E-002
  0.13850000000000001          2.3132858797907829E-002
  0.13960000000000000          2.3979581892490387E-002
  0.14070000000000005          2.4665836244821548E-002
  0.14180000000000004          2.5188824161887169E-002
  0.14290000000000003          2.5547537952661514E-002
  0.14400000000000002          2.5742748752236366E-002
  0.14510000000000001          2.5776945054531097E-002
  0.14620000000000000          2.5654276832938194E-002
  0.14730000000000004          2.5380477309226990E-002
  0.14840000000000003          2.4962736293673515E-002
  0.14950000000000002          2.4409562349319458E-002
  0.15060000000000001          2.3730615153908730E-002
  0.15170000000000000          2.2936530411243439E-002
  0.15280000000000005          2.2038757801055908E-002
  0.15390000000000004          2.1049395203590393E-002
  0.15500000000000003          1.9981011748313904E-002
  0.15610000000000002          1.8846455961465836E-002
  0.15720000000000001          1.7658684402704239E-002
  0.15830000000000000          1.6430590301752090E-002
  0.15940000000000004          1.5174849890172482E-002
  0.16050000000000003          1.3903783634305000E-002
  0.16160000000000002          1.2629217468202114E-002
  0.16270000000000001          1.1362363584339619E-002
  0.16380000000000000          1.0113702155649662E-002
  0.16490000000000005          8.8928965851664543E-003
  0.16600000000000004          7.7087325043976307E-003
  0.16710000000000003          6.5690707415342331E-003
  0.16820000000000002          5.4808189161121845E-003
  0.16930000000000001          4.4499184004962444E-003
  0.17040000000000000          3.4813410602509975E-003
  0.17150000000000004          2.5791022926568985E-003
  0.17260000000000003          1.7462874529883265E-003
  0.17370000000000002          9.8508608061820269E-004
  0.17480000000000001          2.9683485627174377E-004
  0.17590000000000000         -3.1793117523193359E-004
  0.17700000000000005         -8.5941556608304381E-004
  0.17810000000000004         -1.3284886954352260E-003
  0.17920000000000003         -1.7266136128455400E-003
  0.18030000000000002         -2.0557760726660490E-003
  0.18140000000000001         -2.3184181191027164E-003
  0.18250000000000000         -2.5173749309033155E-003
  0.18360000000000004         -2.6558064855635166E-003
  0.18470000000000003         -2.7371260803192854E-003
  0.18580000000000002         -2.7649360708892345E-003
  0.18690000000000001         -2.7429750189185143E-003
  0.18800000000000000         -2.6750788092613220E-003
  0.18910000000000005         -2.5651457253843546E-003
  0.19020000000000004         -2.4170987308025360E-003
  0.19130000000000003         -2.2348400671035051E-003
  0.19240000000000002         -2.0222119055688381E-003
  0.19350000000000001         -1.7829684074968100E-003
  0.19460000000000005         -1.5207647811621428E-003
  0.19570000000000004         -1.2391560012474656E-003
  0.19680000000000003         -9.4159221043810248E-004
  0.19790000000000002         -6.3140399288386106E-004
  0.19900000000000001         -3.1178514473140240E-004
  0.20010000000000000          1.4217775060387794E-005
  0.20120000000000005          3.4369912464171648E-004
  0.20230000000000004          6.7387928720563650E-004
  0.20340000000000003          1.0020938934758306E-003
  0.20450000000000002          1.3257970567792654E-003
  0.20560000000000000          1.6425764188170433E-003
  0.20670000000000005          1.9501690985634923E-003
  0.20780000000000004          2.2464639041572809E-003
  0.20890000000000003          2.5294912047684193E-003
