 -0.12000000000000000          0.0000000000000000
 -0.11889999999999999          0.0000000000000000
 -0.11780000000000000          0.0000000000000000
 -0.11670000000000000          0.0000000000000000
 -0.11559999999999999          0.0000000000000000
 -0.11449999999999999          0.0000000000000000
 -0.11340000000000000         -3.9378747006309635E-017
 -0.11230000000000000         -1.9050824480977362E-016
 -0.11119999999999999          1.4723336793049837E-017
 -0.11009999999999999          2.1967346324413498E-015
 -0.10900000000000000          5.2250709659039211E-015
 -0.10790000000000000         -5.4889937267741523E-015
 -0.10679999999999999         -5.3176823296315068E-014
 -0.10569999999999999         -1.0413055780058439E-013
 -0.10460000000000000          2.9821434763873528E-014
 -0.10349999999999999          5.8846823898159317E-013
 -0.10239999999999999          1.2876025115918233E-012
 -0.10130000000000000          6.3866024014452849E-013
 -0.10020000000000000         -3.3250941063045492E-012
  -9.9099999999999994E-002    -9.5498253402381827E-012
  -9.7999999999999990E-002    -9.8796465800021771E-012
  -9.6899999999999986E-002     8.1537450402624501E-012
  -9.5799999999999996E-002     4.5249096136679157E-011
  -9.4699999999999993E-002     6.9528487134373762E-011
  -9.3599999999999989E-002     2.0763103042442665E-011
  -9.2499999999999999E-002    -1.3239920271246319E-010
  -9.1399999999999995E-002    -3.0500979519842986E-010
  -9.0299999999999991E-002    -2.7625932097485872E-010
  -8.9200000000000002E-002     1.5502479855378226E-010
  -8.8099999999999984E-002     8.7306428753208820E-010
  -8.6999999999999994E-002     1.2724282738574288E-009
  -8.5899999999999990E-002     5.5900251094698206E-010
  -8.4799999999999986E-002    -1.4407777193525817E-009
  -8.3699999999999997E-002    -3.5505525186607656E-009
  -8.2599999999999993E-002    -3.5464386982653195E-009
  -8.1499999999999989E-002     1.0583126042185143E-010
  -8.0399999999999999E-002     6.0979008509320920E-009
  -7.9299999999999995E-002     9.8772634515853497E-009
  -7.8199999999999992E-002     6.5032912388574005E-009
  -7.7100000000000002E-002    -4.5016617100657186E-009
  -7.5999999999999984E-002    -1.6441829231439442E-008
  -7.4899999999999994E-002    -1.8795772049884363E-008
  -7.3799999999999991E-002    -5.9269371632808543E-009
  -7.2699999999999987E-002     1.5536912201241648E-008
  -7.1599999999999997E-002     2.8796911522022128E-008
  -7.0499999999999993E-002     1.9955541219474071E-008
  -6.9399999999999989E-002    -7.3249415422083075E-009
  -6.8300000000000000E-002    -3.0146459550906002E-008
  -6.7199999999999996E-002    -2.3990915920535372E-008
  -6.6099999999999992E-002     1.1980752390172711E-008
  -6.5000000000000002E-002     4.5711828988714842E-008
  -6.3899999999999985E-002     3.4503813139963313E-008
  -6.2799999999999995E-002    -3.3092643292320645E-008
  -6.1699999999999991E-002    -1.1184506831796170E-007
  -6.0599999999999994E-002    -1.2255020465090638E-007
  -5.9499999999999990E-002    -1.7042435018765900E-008
  -5.8399999999999994E-002     1.6351599185782106E-007
  -5.7299999999999990E-002     2.9420220926112961E-007
  -5.6199999999999986E-002     2.4892088390515710E-007
  -5.5099999999999996E-002     6.1014118202251666E-009
  -5.3999999999999992E-002    -3.0911292014934588E-007
  -5.2899999999999989E-002    -4.9411852387493127E-007
  -5.1799999999999985E-002    -4.0970573422782763E-007
  -5.0699999999999995E-002    -8.6799204268572794E-008
  -4.9599999999999991E-002     2.8916167593706632E-007
  -4.8499999999999988E-002     5.0961796205228893E-007
  -4.7399999999999998E-002     4.8734574420450372E-007
  -4.6299999999999994E-002     2.9804078849338111E-007
  -4.5199999999999990E-002     8.9418264792584523E-008
  -4.4099999999999986E-002    -5.7335327596774732E-008
  -4.2999999999999997E-002    -1.8696944437124330E-007
  -4.1899999999999993E-002    -3.9459573031308537E-007
  -4.0799999999999989E-002    -6.8367711492101080E-007
  -3.9699999999999985E-002    -8.9394274027654319E-007
  -3.8599999999999995E-002    -7.8336836395465070E-007
  -3.7499999999999992E-002    -2.1717161757806025E-007
  -3.6399999999999988E-002     6.8201796921130153E-007
  -3.5299999999999984E-002     1.5499367691518273E-006
  -3.4199999999999994E-002     1.9672540929605020E-006
  -3.3099999999999991E-002     1.6947009271461866E-006
  -3.1999999999999987E-002     8.0117661127587780E-007
  -3.0899999999999997E-002    -3.9104594407035620E-007
  -2.9799999999999993E-002    -1.4941977042326471E-006
  -2.8699999999999989E-002    -2.2465026177087566E-006
  -2.7599999999999986E-002    -2.5910014755936572E-006
  -2.6499999999999996E-002    -2.6099346541741397E-006
  -2.5399999999999992E-002    -2.3778065951773897E-006
  -2.4299999999999988E-002    -1.8451105461281259E-006
  -2.3199999999999985E-002    -8.4136667055645376E-007
  -2.2099999999999995E-002     7.9935841768019600E-007
  -2.0999999999999991E-002     3.0895539566699881E-006
  -1.9899999999999987E-002     5.8640557654143777E-006
  -1.8799999999999983E-002     8.9662098616827279E-006
  -1.7699999999999994E-002     1.2567009434860665E-005
  -1.6599999999999990E-002     1.7382593796355650E-005
  -1.5499999999999986E-002     2.4550752641516738E-005
  -1.4399999999999996E-002     3.5136723454343155E-005
  -1.3299999999999992E-002     4.9546899390406907E-005
  -1.2199999999999989E-002     6.7291563027538359E-005
  -1.1099999999999985E-002     8.7372471170965582E-005
  -9.9999999999999950E-003     1.0914245649473742E-004
  -8.8999999999999913E-003     1.3310220674611628E-004
  -7.7999999999999875E-003     1.6108946874737740E-004
  -6.6999999999999837E-003     1.9573359168134630E-004
  -5.5999999999999939E-003     2.3959318059496582E-004
  -4.4999999999999901E-003     2.9463568353094161E-004
  -3.3999999999999864E-003     3.6244603688828647E-004
  -2.2999999999999826E-003     4.4497783528640866E-004
  -1.1999999999999927E-003     5.4524833103641868E-004
  -9.9999999999988987E-005     6.6745845833793283E-004
   1.0000000000000148E-003     8.1650912761688232E-004
   2.1000000000000185E-003     9.9737639538943768E-004
   3.2000000000000084E-003     1.2149021495133638E-003
   4.3000000000000121E-003     1.4742059865966439E-003
   5.4000000000000159E-003     1.7814495367929339E-003
   6.5000000000000058E-003     2.1444666199386120E-003
   7.6000000000000234E-003     2.5729385670274496E-003
   8.7000000000000133E-003     3.0781705863773823E-003
   9.8000000000000032E-003     3.6727860569953918E-003
   1.0900000000000021E-002     4.3706414289772511E-003
   1.2000000000000011E-002     5.1870350725948811E-003
   1.3100000000000001E-002     6.1390707269310951E-003
   1.4200000000000018E-002     7.2459373623132706E-003
   1.5300000000000008E-002     8.5289496928453445E-003
   1.6400000000000026E-002     1.0011366568505764E-002
   1.7500000000000016E-002     1.1718144640326500E-002
   1.8600000000000005E-002     1.3675813563168049E-002
   1.9700000000000023E-002     1.5912638977169991E-002
   2.0800000000000013E-002     1.8459070473909378E-002
   2.1900000000000003E-002     2.1348200738430023E-002
   2.3000000000000020E-002     2.4615811184048653E-002
   2.4100000000000010E-002     2.8299761936068535E-002
   2.5200000000000000E-002     3.2438892871141434E-002
   2.6300000000000018E-002     3.7071868777275085E-002
   2.7400000000000008E-002     4.2236547917127609E-002
   2.8500000000000025E-002     4.7969967126846313E-002
   2.9600000000000015E-002     5.4308637976646423E-002
   3.0700000000000005E-002     6.1288576573133469E-002
   3.1800000000000023E-002     6.8944558501243591E-002
   3.2900000000000013E-002     7.7308684587478638E-002
   3.4000000000000002E-002     8.6408644914627075E-002
   3.5100000000000020E-002     9.6266016364097595E-002
   3.6200000000000010E-002    0.10689474642276764
   3.7300000000000028E-002    0.11829978972673416
   3.8400000000000017E-002    0.13047577440738678
   3.9500000000000007E-002    0.14340588450431824
   4.0600000000000025E-002    0.15706084668636322
   4.1700000000000015E-002    0.17139795422554016
   4.2800000000000005E-002    0.18636023998260498
   4.3900000000000022E-002    0.20187503099441528
   4.5000000000000012E-002    0.21785259246826172
   4.6100000000000002E-002    0.23418438434600830
   4.7200000000000020E-002    0.25074166059494019
   4.8300000000000010E-002    0.26737508177757263
   4.9400000000000027E-002    0.28391447663307190
   5.0500000000000017E-002    0.30016943812370300
   5.1600000000000007E-002    0.31593039631843567
   5.2700000000000025E-002    0.33096957206726074
   5.3800000000000014E-002    0.34504306316375732
   5.4900000000000004E-002    0.35789382457733154
   5.6000000000000022E-002    0.36925369501113892
   5.7100000000000012E-002    0.37884449958801270
   5.8200000000000002E-002    0.38638049364089966
   5.9300000000000019E-002    0.39157238602638245
   6.0400000000000009E-002    0.39413204789161682
   6.1500000000000027E-002    0.39377781748771667
   6.2600000000000017E-002    0.39024028182029724
   6.3700000000000007E-002    0.38326793909072876
   6.4800000000000024E-002    0.37263259291648865
   6.5900000000000014E-002    0.35813561081886292
   6.7000000000000004E-002    0.33961346745491028
   6.8100000000000022E-002    0.31694179773330688
   6.9200000000000012E-002    0.29004025459289551
   7.0300000000000029E-002    0.25887596607208252
   7.1400000000000019E-002    0.22346717119216919
   7.2500000000000009E-002    0.18388974666595459
   7.3600000000000027E-002    0.14028157293796539
   7.4700000000000016E-002     9.2843003571033478E-002
   7.5800000000000006E-002     4.1837431490421295E-002
   7.6900000000000024E-002    -1.2410262599587440E-002
   7.8000000000000014E-002    -6.9516576826572418E-002
   7.9100000000000004E-002   -0.12903997302055359
   8.0200000000000021E-002   -0.19048403203487396
   8.1300000000000011E-002   -0.25330254435539246
   8.2400000000000029E-002   -0.31690675020217896
   8.3500000000000019E-002   -0.38067546486854553
   8.4600000000000009E-002   -0.44396367669105530
   8.5700000000000026E-002   -0.50610959529876709
   8.6800000000000016E-002   -0.56644380092620850
   8.7900000000000006E-002   -0.62429916858673096
   8.9000000000000024E-002   -0.67902332544326782
   9.0100000000000013E-002   -0.72999161481857300
   9.1200000000000003E-002   -0.77661913633346558
   9.2300000000000021E-002   -0.81837147474288940
   9.3400000000000011E-002   -0.85477244853973389
   9.4500000000000028E-002   -0.88541233539581299
   9.5600000000000018E-002   -0.90995794534683228
   9.6700000000000008E-002   -0.92816340923309326
   9.7800000000000026E-002   -0.93987596035003662
   9.8900000000000016E-002   -0.94503819942474365
  0.10000000000000001        -0.94368880987167358
  0.10110000000000002        -0.93596267700195312
  0.10220000000000001        -0.92209202051162720
  0.10330000000000003        -0.90240556001663208
  0.10440000000000002        -0.87732315063476562
  0.10550000000000001        -0.84734725952148438
  0.10660000000000003        -0.81305336952209473
  0.10770000000000002        -0.77508026361465454
  0.10880000000000001        -0.73412060737609863
  0.10990000000000003        -0.69091057777404785
  0.11100000000000002        -0.64621609449386597
  0.11210000000000001        -0.60081583261489868
  0.11320000000000002        -0.55548334121704102
  0.11430000000000001        -0.51097124814987183
  0.11540000000000003        -0.46800041198730469
  0.11650000000000002        -0.42724880576133728
  0.11760000000000001        -0.38933852314949036
  0.11870000000000003        -0.35481932759284973
  0.11980000000000002        -0.32415258884429932
  0.12090000000000001        -0.29770129919052124
  0.12200000000000003        -0.27572411298751831
  0.12310000000000001        -0.25837245583534241
  0.12420000000000003        -0.24568660557270050
  0.12530000000000002        -0.23759014904499054
  0.12640000000000001        -0.23388424515724182
  0.12750000000000003        -0.23424758017063141
  0.12860000000000002        -0.23824472725391388
  0.12970000000000001        -0.24533709883689880
  0.13080000000000003        -0.25489181280136108
  0.13190000000000002        -0.26618912816047668
  0.13300000000000001        -0.27842798829078674
  0.13410000000000000        -0.29073974490165710
  0.13520000000000004        -0.30220833420753479
  0.13630000000000003        -0.31189113855361938
  0.13740000000000002        -0.31883949041366577
  0.13850000000000001        -0.32210963964462280
  0.13960000000000000        -0.32077747583389282
  0.14070000000000005        -0.31395673751831055
  0.14180000000000004        -0.30082362890243530
  0.14290000000000003        -0.28064349293708801
  0.14400000000000002        -0.25278660655021667
  0.14510000000000001        -0.21673874557018280
  0.14620000000000000        -0.17210938036441803
  0.14730000000000004        -0.11864514648914337
  0.14840000000000003         -5.6248802691698074E-002
  0.14950000000000002          1.5008116140961647E-002
  0.15060000000000001          9.4882071018218994E-002
  0.15170000000000000         0.18295767903327942
  0.15280000000000005         0.27865430712699890
  0.15390000000000004         0.38123077154159546
  0.15500000000000003         0.48978638648986816
  0.15610000000000002         0.60326480865478516
  0.15720000000000001         0.72046434879302979
  0.15830000000000000         0.84005945920944214
  0.15940000000000004         0.96062570810317993
  0.16050000000000003          1.0806627273559570
  0.16160000000000002          1.1986142396926880
  0.16270000000000001          1.3128842115402222
  0.16380000000000000          1.4218603372573853
  0.16490000000000005          1.5239460468292236
  0.16600000000000004          1.6175949573516846
  0.16710000000000003          1.7013399600982666
  0.16820000000000002          1.7738150358200073
  0.16930000000000001          1.8337751626968384
  0.17040000000000000          1.8801159858703613
  0.17150000000000004          1.9118971824645996
  0.17260000000000003          1.9283660650253296
  0.17370000000000002          1.9289753437042236
  0.17480000000000001          1.9133923053741455
  0.17590000000000000          1.8815003633499146
  0.17700000000000005          1.8334013223648071
  0.17810000000000004          1.7694180011749268
  0.17920000000000003          1.6900941133499146
  0.18030000000000002          1.5961872339248657
  0.18140000000000001          1.4886552095413208
  0.18250000000000000          1.3686385154724121
  0.18360000000000004          1.2374387979507446
  0.18470000000000003          1.0964989662170410
  0.18580000000000002         0.94738233089447021
  0.18690000000000001         0.79175078868865967
  0.18800000000000000         0.63133627176284790
  0.18910000000000005         0.46790868043899536
  0.19020000000000004         0.30324965715408325
  0.19130000000000003         0.13912694156169891
  0.19240000000000002         -2.2730985656380653E-002
  0.19350000000000001        -0.18065860867500305
  0.19460000000000005        -0.33307901024818420
  0.19570000000000004        -0.47852542996406555
  0.19680000000000003        -0.61565786600112915
  0.19790000000000002        -0.74327868223190308
  0.19900000000000001        -0.86034560203552246
  0.20010000000000000        -0.96598142385482788
  0.20120000000000005         -1.0594788789749146
  0.20230000000000004         -1.1403050422668457
  0.20340000000000003         -1.2081018686294556
  0.20450000000000002         -1.2626817226409912
  0.20560000000000000         -1.3040208816528320
  0.20670000000000005         -1.3322516679763794
  0.20780000000000004         -1.3476545810699463
  0.20890000000000003         -1.3506481647491455
