 -0.12000000000000000          0.0000000000000000
 -0.11889999999999999          0.0000000000000000
 -0.11780000000000000          0.0000000000000000
 -0.11670000000000000          0.0000000000000000
 -0.11559999999999999          0.0000000000000000
 -0.11449999999999999          0.0000000000000000
 -0.11340000000000000          0.0000000000000000
 -0.11230000000000000          0.0000000000000000
 -0.11119999999999999          0.0000000000000000
 -0.11009999999999999          0.0000000000000000
 -0.10900000000000000          0.0000000000000000
 -0.10790000000000000          0.0000000000000000
 -0.10679999999999999         -2.5644178385468525E-035
 -0.10569999999999999          1.1951819296942675E-034
 -0.10460000000000000         -3.4884881363124091E-033
 -0.10349999999999999         -2.4526046046749954E-032
 -0.10239999999999999         -5.5996142769358193E-033
 -0.10130000000000000          1.6275627944267756E-031
 -0.10020000000000000         -7.9304378431897783E-031
  -9.9099999999999994E-002    -6.1346526147945099E-030
  -9.7999999999999990E-002    -3.7169590285995292E-030
  -9.6899999999999986E-002     6.3612063745369643E-029
  -9.5799999999999996E-002     1.7629380117112580E-028
  -9.4699999999999993E-002    -2.0579757939755566E-028
  -9.3599999999999989E-002    -1.9325740175093829E-027
  -9.2499999999999999E-002    -2.6522204672030174E-027
  -9.1399999999999995E-002     7.9198014135894137E-027
  -9.0299999999999991E-002     3.4881956277651675E-026
  -8.9200000000000002E-002     2.7466931858022422E-026
  -8.8099999999999984E-002    -1.4187001476796610E-025
  -8.6999999999999994E-002    -4.5682890647922875E-025
  -8.5899999999999990E-002    -2.5245698613039105E-025
  -8.4799999999999986E-002     1.6928751894359819E-024
  -8.3699999999999997E-002     4.7657438089898882E-024
  -8.2599999999999993E-002     2.5164049537196467E-024
  -8.1499999999999989E-002    -1.4999445428083011E-023
  -8.0399999999999999E-002    -4.1358740326838262E-023
  -7.9299999999999995E-002    -2.6265308432785410E-023
  -7.8199999999999992E-002     1.0263476700644147E-022
  -7.7100000000000002E-002     3.0371985461189558E-022
  -7.5999999999999984E-002     2.4889949954916111E-022
  -7.4899999999999994E-002    -5.4007401714379280E-022
  -7.3799999999999991E-002    -1.8944366654089335E-021
  -7.2699999999999987E-002    -1.9920845693169299E-021
  -7.1599999999999997E-002     2.0272108667304152E-021
  -7.0499999999999993E-002     9.9951731160927212E-021
  -6.9399999999999989E-002     1.3269143479261234E-020
  -6.8300000000000000E-002    -3.4616292906025954E-021
  -6.7199999999999996E-002    -4.4027531439618790E-020
  -6.6099999999999992E-002    -7.3783812706088227E-020
  -6.5000000000000002E-002    -2.0158593476309021E-020
  -6.3899999999999985E-002     1.5683913100676535E-019
  -6.2799999999999995E-002     3.4366415375464322E-019
  -6.1699999999999991E-002     2.3874629676782473E-019
  -6.0599999999999994E-002    -4.1304111004856691E-019
  -5.9499999999999990E-002    -1.3358940009361489E-018
  -5.8399999999999994E-002    -1.4442773052498642E-018
  -5.7299999999999990E-002     5.1665861326305791E-019
  -5.6199999999999986E-002     4.2539715146785073E-018
  -5.5099999999999996E-002     6.4501844310726302E-018
  -5.3999999999999992E-002     2.0359131718971653E-018
  -5.2899999999999989E-002    -1.0494090534061152E-017
  -5.1799999999999985E-002    -2.2896870553086364E-017
  -5.0699999999999995E-002    -1.7990089753342232E-017
  -4.9599999999999991E-002     1.6281404268687369E-017
  -4.8499999999999988E-002     6.5241607648964113E-017
  -4.7399999999999998E-002     8.0030994813926309E-017
  -4.6299999999999994E-002     7.9537857856863021E-018
  -4.5199999999999990E-002    -1.4345339406786990E-016
  -4.4099999999999986E-002    -2.6029528933405543E-016
  -4.2999999999999997E-002    -1.6867198689246397E-016
  -4.1899999999999993E-002     2.0435335567466978E-016
  -4.0799999999999989E-002     6.5705648031672481E-016
  -3.9699999999999985E-002     7.2723654812853261E-016
  -3.8599999999999995E-002     2.6712722547603710E-017
  -3.7499999999999992E-002    -1.2516239519827109E-015
  -3.6399999999999988E-002    -2.1159270539985791E-015
  -3.5299999999999984E-002    -1.3085373662581482E-015
  -3.4199999999999994E-002     1.4832998509136156E-015
  -3.3099999999999991E-002     4.6315634500923054E-015
  -3.1999999999999987E-002     5.0346770176024676E-015
  -3.0899999999999997E-002     4.8626335087076865E-016
  -2.9799999999999993E-002    -7.4217289418635445E-015
  -2.8699999999999989E-002    -1.2645055866929069E-014
  -2.7599999999999986E-002    -8.3124366019441710E-015
  -2.6499999999999996E-002     6.7039383992836734E-015
  -2.5399999999999992E-002     2.3445834710549354E-014
  -2.4299999999999988E-002     2.6428246188161218E-014
  -2.3199999999999985E-002     5.6375459415471379E-015
  -2.2099999999999995E-002    -3.0827523557963241E-014
  -2.0999999999999991E-002    -5.5797089225460145E-014
  -1.9899999999999987E-002    -4.0315715582562792E-014
  -1.8799999999999983E-002     1.9337801149331250E-014
  -1.7699999999999994E-002     8.6883638846825539E-014
  -1.6599999999999990E-002     1.0321189974731027E-013
  -1.5499999999999986E-002     3.2532187528707887E-014
  -1.4399999999999996E-002    -9.4703053992589714E-014
  -1.3299999999999992E-002    -1.8422481422308845E-013
  -1.2199999999999989E-002    -1.4107904297913643E-013
  -1.1099999999999985E-002     4.2986942401946476E-014
  -9.9999999999999950E-003     2.5082174293263038E-013
  -8.8999999999999913E-003     3.0342536209287951E-013
  -7.7999999999999875E-003     1.0249977543163105E-013
  -6.6999999999999837E-003    -2.5296930349083535E-013
  -5.5999999999999939E-003    -4.9233409233143122E-013
  -4.4999999999999901E-003    -3.6410783242624145E-013
  -3.3999999999999864E-003     1.2986923277231999E-013
  -2.2999999999999826E-003     6.5719142367665073E-013
  -1.1999999999999927E-003     7.5354577178804449E-013
  -9.9999999999988987E-005     2.0111948944353392E-013
   1.0000000000000148E-003    -7.0142085499200202E-013
   2.1000000000000185E-003    -1.2526003454957357E-012
   3.2000000000000084E-003    -8.5527982265909408E-013
   4.3000000000000121E-003     4.2261192375464551E-013
   5.4000000000000159E-003     1.7168388022001380E-012
   6.5000000000000058E-003     1.9004485485307754E-012
   7.6000000000000234E-003     4.9452483124115543E-013
   8.7000000000000133E-003    -1.7392622715314832E-012
   9.8000000000000032E-003    -3.1232661856089861E-012
   1.0900000000000021E-002    -2.2609991136290919E-012
   1.2000000000000011E-002     7.0324697671111935E-013
   1.3100000000000001E-002     3.8249689873759429E-012
   1.4200000000000018E-002     4.5619476078673227E-012
   1.5300000000000008E-002     1.7626842910636875E-012
   1.6400000000000026E-002    -3.0585109098146823E-012
   1.7500000000000016E-002    -6.3938550634579094E-012
   1.8600000000000005E-002    -5.2255899260500449E-012
   1.9700000000000023E-002     3.7052804401083161E-013
   2.0800000000000013E-002     6.6561092575134762E-012
   2.1900000000000003E-002     8.5969243876493628E-012
   2.3000000000000020E-002     3.7924429222013778E-012
   2.4100000000000010E-002    -5.0000758741730600E-012
   2.5200000000000000E-002    -1.1148083324530322E-011
   2.6300000000000018E-002    -8.9352882731708050E-012
   2.7400000000000008E-002     1.4382951210242800E-012
   2.8500000000000025E-002     1.2800080440023009E-011
   2.9600000000000015E-002     1.5593496979771082E-011
   3.0700000000000005E-002     5.4378394148679732E-012
   3.1800000000000023E-002    -1.2047842758156069E-011
   3.2900000000000013E-002    -2.3757048411843229E-011
   3.4000000000000002E-002    -1.8387973435562976E-011
   3.5100000000000020E-002     3.7737009697669244E-012
   3.6200000000000010E-002     2.8548330366362507E-011
   3.7300000000000028E-002     3.6447251466897868E-011
   3.8400000000000017E-002     1.7327986268078632E-011
   3.9500000000000007E-002    -1.9569592474288910E-011
   4.0600000000000025E-002    -4.9165761739633496E-011
   4.1700000000000015E-002    -4.7323932966802928E-011
   4.2800000000000005E-002    -9.8671661119542620E-012
   4.3900000000000022E-002     4.0838481901728230E-011
   4.5000000000000012E-002     6.8935780694889814E-011
   4.6100000000000002E-002     5.0566589110401239E-011
   4.7200000000000020E-002    -6.2890070755272642E-012
   4.8300000000000010E-002    -6.3873149824811293E-011
   4.9400000000000027E-002    -7.9892793769520409E-011
   5.0500000000000017E-002    -3.9203005425259008E-011
   5.1600000000000007E-002     3.1966256031079610E-011
   5.2700000000000025E-002     8.2297633985373153E-011
   5.3800000000000014E-002     7.2739758660844700E-011
   5.4900000000000004E-002     7.7920022864552685E-012
   5.6000000000000022E-002    -6.4571251123801687E-011
   5.7100000000000012E-002    -8.7398185910636528E-011
   5.8200000000000002E-002    -3.9553881003850933E-011
   5.9300000000000019E-002     4.4157597717253694E-011
   6.0400000000000009E-002     9.6347520239792317E-011
   6.1500000000000027E-002     6.9433084282088942E-011
   6.2600000000000017E-002    -2.2689256723440465E-011
   6.3700000000000007E-002    -1.0921883536463284E-010
   6.4800000000000024E-002    -1.1491017165576878E-010
   6.5900000000000014E-002    -2.2658036905043311E-011
   6.7000000000000004E-002     1.0465985716967552E-010
   6.8100000000000022E-002     1.6652133838501726E-010
   6.9200000000000012E-002     1.0412833789663622E-010
   7.0300000000000029E-002    -4.5117132252414649E-011
   7.1400000000000019E-002    -1.6759649223985207E-010
   7.2500000000000009E-002    -1.6146488313051321E-010
   7.3600000000000027E-002    -2.7033906363493898E-011
   7.4700000000000016E-002     1.1888846851437762E-010
   7.5800000000000006E-002     1.3101754403610499E-010
   7.6900000000000024E-002    -3.1930357663467746E-011
   7.8000000000000014E-002    -2.3900006973498478E-010
   7.9100000000000004E-002    -2.5971882977593452E-010
   8.0200000000000021E-002     4.9702714166599549E-011
   8.1300000000000011E-002     5.7812593601269668E-010
   8.2400000000000029E-002     9.5821750534241801E-010
   8.3500000000000019E-002     7.8020745419848936E-010
   8.4600000000000009E-002    -9.3425288338888635E-011
   8.5700000000000026E-002    -1.3328156356351428E-009
   8.6800000000000016E-002    -2.2420603151829255E-009
   8.7900000000000006E-002    -2.1467949640197048E-009
   8.9000000000000024E-002    -8.4489842899770906E-010
   9.0100000000000013E-002     1.1851296610743134E-009
   9.1200000000000003E-002     2.9947628821247463E-009
   9.2300000000000021E-002     3.6980027928734671E-009
   9.3400000000000011E-002     2.9931201961375109E-009
   9.4500000000000028E-002     1.3194790815518331E-009
   9.5600000000000018E-002    -4.7335907416012901E-010
   9.6700000000000008E-002    -1.7270699315119487E-009
   9.7800000000000026E-002    -2.4188699931926294E-009
   9.8900000000000016E-002    -3.1058522420579493E-009
  0.10000000000000001         -4.3707517605184876E-009
  0.10110000000000002         -6.1448015564735670E-009
  0.10220000000000001         -7.4165900088019043E-009
  0.10330000000000003         -6.6106631280149486E-009
  0.10440000000000002         -2.4701045653330311E-009
  0.10550000000000001          5.0899351400346404E-009
  0.10660000000000003          1.4707705275895933E-008
  0.10770000000000002          2.4062712711270251E-008
  0.10880000000000001          3.0799313321949739E-008
  0.10990000000000003          3.3260061371720440E-008
  0.11100000000000002          3.0534039296981064E-008
  0.11210000000000001          2.1807601058299042E-008
  0.11320000000000002          5.5056235126471620E-009
  0.11430000000000001         -2.1126508542579359E-008
  0.11540000000000003         -6.1653011584894557E-008
  0.11650000000000002         -1.1951092915296613E-007
  0.11760000000000001         -1.9716942745162669E-007
  0.11870000000000003         -2.9605337203975068E-007
  0.11980000000000002         -4.1745914813873242E-007
  0.12090000000000001         -5.6409703574900050E-007
  0.12200000000000003         -7.4154024787276285E-007
  0.12310000000000001         -9.5895723006833578E-007
  0.12420000000000003         -1.2289616506677703E-006
  0.12530000000000002         -1.5669116919525550E-006
  0.12640000000000001         -1.9902286112483125E-006
  0.12750000000000003         -2.5181984710798133E-006
  0.12860000000000002         -3.1724184736958705E-006
  0.12970000000000001         -3.9778110476618167E-006
  0.13080000000000003         -4.9640375436865725E-006
  0.13190000000000002         -6.1671835283050314E-006
  0.13300000000000001         -7.6315564001561143E-006
  0.13410000000000000         -9.4113602244760841E-006
  0.13520000000000004         -1.1571944014576729E-005
  0.13630000000000003         -1.4190470210451167E-005
  0.13740000000000002         -1.7356316675432026E-005
  0.13850000000000001         -2.1171927073737606E-005
  0.13960000000000000         -2.5754892703844234E-005
  0.14070000000000005         -3.1241546821547672E-005
  0.14180000000000004         -3.7791414797538891E-005
  0.14290000000000003         -4.5591197704197839E-005
  0.14400000000000002         -5.4857129725860432E-005
  0.14510000000000001         -6.5835549321491271E-005
  0.14620000000000000         -7.8803030191920698E-005
  0.14730000000000004         -9.4068025646265596E-005
  0.14840000000000003         -1.1197557614650577E-004
  0.14950000000000002         -1.3291479262989014E-004
  0.15060000000000001         -1.5732694009784609E-004
  0.15170000000000000         -1.8571129476185888E-004
  0.15280000000000005         -2.1862694120500237E-004
  0.15390000000000004         -2.5669109891168773E-004
  0.15500000000000003         -3.0057656113058329E-004
  0.15610000000000002         -3.5101166577078402E-004
  0.15720000000000001         -4.0878413710743189E-004
  0.15830000000000000         -4.7474712482653558E-004
  0.15940000000000004         -5.4982426809147000E-004
  0.16050000000000003         -6.3500989926978946E-004
  0.16160000000000002         -7.3136342689394951E-004
  0.16270000000000001         -8.4000028437003493E-004
  0.16380000000000000         -9.6208293689414859E-004
  0.16490000000000005         -1.0988140711560845E-003
  0.16600000000000004         -1.2514329282566905E-003
  0.16710000000000003         -1.4212088426575065E-003
  0.16820000000000002         -1.6094312304630876E-003
  0.16930000000000001         -1.8173909047618508E-003
  0.17040000000000000         -2.0463541150093079E-003
  0.17150000000000004         -2.2975360043346882E-003
  0.17260000000000003         -2.5720736011862755E-003
  0.17370000000000002         -2.8710053302347660E-003
  0.17480000000000001         -3.1952497083693743E-003
  0.17590000000000000         -3.5455839242786169E-003
  0.17700000000000005         -3.9226119406521320E-003
  0.17810000000000004         -4.3267272412776947E-003
  0.17920000000000003         -4.7580678947269917E-003
  0.18030000000000002         -5.2164760418236256E-003
  0.18140000000000001         -5.7014650665223598E-003
  0.18250000000000000         -6.2121874652802944E-003
  0.18360000000000004         -6.7474092356860638E-003
  0.18470000000000003         -7.3054837994277477E-003
  0.18580000000000002         -7.8843263909220695E-003
  0.18690000000000001         -8.4813861176371574E-003
  0.18800000000000000         -9.0936245396733284E-003
  0.18910000000000005         -9.7175026312470436E-003
  0.19020000000000004         -1.0348967276513577E-002
  0.19130000000000003         -1.0983460582792759E-002
  0.19240000000000002         -1.1615940369665623E-002
  0.19350000000000001         -1.2240896932780743E-002
  0.19460000000000005         -1.2852384708821774E-002
  0.19570000000000004         -1.3444050215184689E-002
  0.19680000000000003         -1.4009182341396809E-002
  0.19790000000000002         -1.4540771022439003E-002
  0.19900000000000001         -1.5031584538519382E-002
  0.20010000000000000         -1.5474250540137291E-002
  0.20120000000000005         -1.5861341729760170E-002
  0.20230000000000004         -1.6185460612177849E-002
  0.20340000000000003         -1.6439350321888924E-002
  0.20450000000000002         -1.6615994274616241E-002
  0.20560000000000000         -1.6708748415112495E-002
  0.20670000000000005         -1.6711443662643433E-002
  0.20780000000000004         -1.6618510708212852E-002
  0.20890000000000003         -1.6425069421529770E-002
