 -0.12000000000000000          0.0000000000000000
 -0.11889999999999999          0.0000000000000000
 -0.11780000000000000          0.0000000000000000
 -0.11670000000000000          0.0000000000000000
 -0.11559999999999999          0.0000000000000000
 -0.11449999999999999          0.0000000000000000
 -0.11340000000000000          0.0000000000000000
 -0.11230000000000000          0.0000000000000000
 -0.11119999999999999          0.0000000000000000
 -0.11009999999999999          0.0000000000000000
 -0.10900000000000000          0.0000000000000000
 -0.10790000000000000          0.0000000000000000
 -0.10679999999999999          0.0000000000000000
 -0.10569999999999999          0.0000000000000000
 -0.10460000000000000          0.0000000000000000
 -0.10349999999999999          0.0000000000000000
 -0.10239999999999999          6.6611878427178207E-035
 -0.10130000000000000          5.6617510919912778E-034
 -0.10020000000000000         -1.8158895304838614E-033
  -9.9099999999999994E-002    -5.0952490300587283E-032
  -9.7999999999999990E-002    -3.3487776939813032E-031
  -9.6899999999999986E-002    -9.9528551850789495E-031
  -9.5799999999999996E-002     2.1603625443536473E-031
  -9.4699999999999993E-002     1.4808913190529251E-029
  -9.3599999999999989E-002     6.4005729844533470E-029
  -9.2499999999999999E-002     1.1628731300436103E-028
  -9.1399999999999995E-002    -1.2347566596585410E-028
  -9.0299999999999991E-002    -1.4131678522846505E-027
  -8.9200000000000002E-002    -4.1251994220615745E-027
  -8.8099999999999984E-002    -4.4539914858654413E-027
  -8.6999999999999994E-002     1.1476242137822350E-026
  -8.5899999999999990E-002     6.3035754872528272E-026
  -8.4799999999999986E-002     1.3166330096790911E-025
  -8.3699999999999997E-002     6.7158600808197805E-026
  -8.2599999999999993E-002    -4.5411113274932264E-025
  -8.1499999999999989E-002    -1.6173820882748494E-024
  -8.0399999999999999E-002    -2.5027902005716636E-024
  -7.9299999999999995E-002     4.0244728237469355E-026
  -7.8199999999999992E-002     1.0348410672182215E-023
  -7.7100000000000002E-002     2.7179852235148044E-023
  -7.5999999999999984E-002     3.1469627350641972E-023
  -7.4899999999999994E-002    -1.8558681702800727E-023
  -7.3799999999999991E-002    -1.5712015279615737E-022
  -7.2699999999999987E-002    -3.2583025001182184E-022
  -7.1599999999999997E-002    -2.7866944403797027E-022
  -7.0499999999999993E-002     3.6676160443287308E-022
  -6.9399999999999989E-002     1.7314303859477025E-021
  -6.8300000000000000E-002     2.9589991306158569E-021
  -6.7199999999999996E-002     1.8038262590561735E-021
  -6.6099999999999992E-002    -4.2686970550290102E-021
  -6.5000000000000002E-002    -1.4651531919486402E-020
  -6.3899999999999985E-002    -2.1316922599283155E-020
  -6.2799999999999995E-002    -8.7469923068735811E-021
  -6.1699999999999991E-002     3.5504802013975113E-020
  -6.0599999999999994E-002     9.9157054545920970E-020
  -5.9499999999999990E-002     1.2672439296055062E-019
  -5.8399999999999994E-002     3.3101008691547479E-020
  -5.7299999999999990E-002    -2.2724910663879706E-019
  -5.6199999999999986E-002    -5.5418024963149923E-019
  -5.5099999999999996E-002    -6.4541997725611157E-019
  -5.3999999999999992E-002    -1.1419387330068522E-019
  -5.2899999999999989E-002     1.1645250288795833E-018
  -5.1799999999999985E-002     2.6298189255428886E-018
  -5.0699999999999995E-002     2.9220450855504690E-018
  -4.9599999999999991E-002     5.0967627831492123E-019
  -4.8499999999999988E-002    -4.8982860684435183E-018
  -4.7399999999999998E-002    -1.0874947649137718E-017
  -4.6299999999999994E-002    -1.2146040527681615E-017
  -4.5199999999999990E-002    -3.1004677368830040E-018
  -4.4099999999999986E-002     1.7210816133145826E-017
  -4.2999999999999997E-002     4.0164346903830847E-017
  -4.1899999999999993E-002     4.7275727817790083E-017
  -4.0799999999999989E-002     1.8513944889633290E-017
  -3.9699999999999985E-002    -5.1216601544449918E-017
  -3.8599999999999995E-002    -1.3528622298110513E-016
  -3.7499999999999992E-002    -1.7261159006970293E-016
  -3.6399999999999988E-002    -9.2742696186057412E-017
  -3.5299999999999984E-002     1.3052457432855588E-016
  -3.4199999999999994E-002     4.2082844103881825E-016
  -3.3099999999999991E-002     5.8390862081597475E-016
  -3.1999999999999987E-002     3.8364123296485151E-016
  -3.0899999999999997E-002    -2.8550092520153447E-016
  -2.9799999999999993E-002    -1.2083982724975478E-015
  -2.8699999999999989E-002    -1.7984838810813746E-015
  -2.7599999999999986E-002    -1.3352396564038664E-015
  -2.6499999999999996E-002     5.1424714892612340E-016
  -2.5399999999999992E-002     3.1548332925967126E-015
  -2.4299999999999988E-002     4.9659233532738361E-015
  -2.3199999999999985E-002     4.0118279825854340E-015
  -2.2099999999999995E-002    -5.6495530570909412E-016
  -2.0999999999999991E-002    -7.2586793346818279E-015
  -1.9899999999999987E-002    -1.2148757240276146E-014
  -1.8799999999999983E-002    -1.0732366533569397E-014
  -1.7699999999999994E-002    -1.0373755441833265E-015
  -1.6599999999999990E-002     1.3871056436982627E-014
  -1.5499999999999986E-002     2.6097484904456097E-014
  -1.4399999999999996E-002     2.6551941797580553E-014
  -1.3299999999999992E-002     1.0414358177918137E-014
  -1.2199999999999989E-002    -1.8739458769456707E-014
  -1.1099999999999985E-002    -4.8786197521036301E-014
  -9.9999999999999950E-003    -6.3201444674542556E-014
  -8.8999999999999913E-003    -4.7676296368931101E-014
  -7.7999999999999875E-003     2.8945464206525705E-015
  -6.6999999999999837E-003     7.8133185414230172E-014
  -5.5999999999999939E-003     1.4808777305547888E-013
  -4.4999999999999901E-003     1.6611237667503442E-013
  -3.3999999999999864E-003     8.6282380979546547E-014
  -2.2999999999999826E-003    -1.0217132315974015E-013
  -1.1999999999999927E-003    -3.3750622739289748E-013
  -9.9999999999988987E-005    -4.7834652905365260E-013
   1.0000000000000148E-003    -3.6031900661932792E-013
   2.1000000000000185E-003     8.5511547116227243E-014
   3.2000000000000084E-003     7.1560753199875760E-013
   4.3000000000000121E-003     1.1632768316324760E-012
   5.4000000000000159E-003     1.0070583689875123E-012
   6.5000000000000058E-003     7.2194183411370544E-014
   7.6000000000000234E-003    -1.3203819548140983E-012
   8.7000000000000133E-003    -2.3848444920260281E-012
   9.8000000000000032E-003    -2.2702952798964171E-012
   1.0900000000000021E-002    -6.5017701509142989E-013
   1.2000000000000011E-002     1.8904029817218282E-012
   1.3100000000000001E-002     4.0150955477047390E-012
   1.4200000000000018E-002     4.3502432559017201E-012
   1.5300000000000008E-002     2.3388229287296669E-012
   1.6400000000000026E-002    -1.3403301905856591E-012
   1.7500000000000016E-002    -5.0859642018730167E-012
   1.8600000000000005E-002    -7.1852623677315375E-012
   1.9700000000000023E-002    -6.5443323503389106E-012
   2.0800000000000013E-002    -2.9376956596494086E-012
   2.1900000000000003E-002     3.0759943203673146E-012
   2.3000000000000020E-002     1.0085427284978188E-011
   2.4100000000000010E-002     1.5468610767288560E-011
   2.5200000000000000E-002     1.5436697059501014E-011
   2.6300000000000018E-002     6.5487381142870227E-012
   2.7400000000000008E-002    -1.1164149466003082E-011
   2.8500000000000025E-002    -3.1300052827365477E-011
   2.9600000000000015E-002    -4.1604376194159798E-011
   3.0700000000000005E-002    -2.9920305816277804E-011
   3.1800000000000023E-002     6.3650794704384062E-012
   3.2900000000000013E-002     5.3580979930689665E-011
   3.4000000000000002E-002     8.4615647821806306E-011
   3.5100000000000020E-002     7.3137357281538584E-011
   3.6200000000000010E-002     1.2418823781834565E-011
   3.7300000000000028E-002    -7.3920224108459109E-011
   3.8400000000000017E-002    -1.3943270149585629E-010
   3.9500000000000007E-002    -1.3968261269869942E-010
   4.0600000000000025E-002    -6.0638272181279262E-011
   4.1700000000000015E-002     6.7924721403045396E-011
   4.2800000000000005E-002     1.8438880977633687E-010
   4.3900000000000022E-002     2.2668500410105707E-010
   4.5000000000000012E-002     1.6445250716756732E-010
   4.6100000000000002E-002     1.3818430774636958E-011
   4.7200000000000020E-002    -1.7043819133810700E-010
   4.8300000000000010E-002    -3.1632638175516092E-010
   4.9400000000000027E-002    -3.5690167488056090E-010
   5.0500000000000017E-002    -2.4870980275260024E-010
   5.1600000000000007E-002     9.1387574591150766E-012
   5.2700000000000025E-002     3.5389452479606121E-010
   5.3800000000000014E-002     6.5051203312904704E-010
   5.4900000000000004E-002     7.2179801025029633E-010
   5.6000000000000022E-002     4.3116701875511865E-010
   5.7100000000000012E-002    -2.0847883142049994E-010
   5.8200000000000002E-002    -9.6865182541705508E-010
   5.9300000000000019E-002    -1.4551568838783169E-009
   6.0400000000000009E-002    -1.2913474733977637E-009
   6.1500000000000027E-002    -3.5919858754063227E-010
   6.2600000000000017E-002     1.0456294718963477E-009
   6.3700000000000007E-002     2.2722543846498411E-009
   6.4800000000000024E-002     2.6039561618063090E-009
   6.5900000000000014E-002     1.6506559452622582E-009
   6.7000000000000004E-002    -3.7004246888905357E-010
   6.8100000000000022E-002    -2.6412241282969262E-009
   6.9200000000000012E-002    -4.0750620655671810E-009
   7.0300000000000029E-002    -3.8185095085907506E-009
   7.1400000000000019E-002    -1.6952621528787404E-009
   7.2500000000000009E-002     1.6289551929560275E-009
   7.3600000000000027E-002     4.8423069998193569E-009
   7.4700000000000016E-002     6.4752461170769493E-009
   7.5800000000000006E-002     5.5038897883719073E-009
   7.6900000000000024E-002     1.8522428035794292E-009
   7.8000000000000014E-002    -3.4025688933070342E-009
   7.9100000000000004E-002    -8.2524369560132982E-009
   8.0200000000000021E-002    -1.0422930074582837E-008
   8.1300000000000011E-002    -8.3262703398645499E-009
   8.2400000000000029E-002    -1.9624095681791687E-009
   8.3500000000000019E-002     6.6778071960982288E-009
   8.4600000000000009E-002     1.4064596598473145E-008
   8.5700000000000026E-002     1.6465998342596322E-008
   8.6800000000000016E-002     1.1731940752213177E-008
   8.7900000000000006E-002     7.1379968602514055E-010
   8.9000000000000024E-002    -1.2518378333936653E-008
   9.0100000000000013E-002    -2.2058999959995162E-008
   9.1200000000000003E-002    -2.2775509478378808E-008
   9.2300000000000021E-002    -1.3024740397327150E-008
   9.3400000000000011E-002     3.9262073592283286E-009
   9.4500000000000028E-002     2.0753766705183807E-008
   9.5600000000000018E-002     2.9154108460716088E-008
   9.6700000000000008E-002     2.3911200131010446E-008
   9.7800000000000026E-002     6.0170166626960508E-009
   9.8900000000000016E-002    -1.6889273979359132E-008
  0.10000000000000001         -3.3367218321700420E-008
  0.10110000000000002         -3.3342590910478975E-008
  0.10220000000000001         -1.3383369967812087E-008
  0.10330000000000003          2.0420658941588954E-008
  0.10440000000000002          5.3621924678282085E-008
  0.10550000000000001          6.8614774306752224E-008
  0.10660000000000003          5.2115623816462175E-008
  0.10770000000000002          2.0432779912482602E-009
  0.10880000000000001         -6.9148121895068471E-008
  0.10990000000000003         -1.3659195019499748E-007
  0.11100000000000002         -1.7063928225979907E-007
  0.11210000000000001         -1.4789900149025925E-007
  0.11320000000000002         -6.1845724985687411E-008
  0.11430000000000001          7.1430264370064833E-008
  0.11540000000000003          2.1560700247391651E-007
  0.11650000000000002          3.2503757552149182E-007
  0.11760000000000001          3.6081604548598989E-007
  0.11870000000000003          3.0566164355150249E-007
  0.11980000000000002          1.7081482894809596E-007
  0.12090000000000001         -8.9812930426091953E-009
  0.12200000000000003         -1.9094652259354916E-007
  0.12310000000000001         -3.4320925124120549E-007
  0.12420000000000003         -4.5758073952129052E-007
  0.12530000000000002         -5.4850943342898972E-007
  0.12640000000000001         -6.3687946294521680E-007
  0.12750000000000003         -7.2523738481322653E-007
  0.12860000000000002         -7.7672461884503718E-007
  0.12970000000000001         -7.1037180759958574E-007
  0.13080000000000003         -4.1973365227931936E-007
  0.13190000000000002          1.8778180788103782E-007
  0.13300000000000001          1.1430266795287025E-006
  0.13410000000000000          2.3759221221553162E-006
  0.13520000000000004          3.7005229387432337E-006
  0.13630000000000003          4.8318397602997720E-006
  0.13740000000000002          5.4305905905494001E-006
  0.13850000000000001          5.1619795158330817E-006
  0.13960000000000000          3.7496374716283754E-006
  0.14070000000000005          1.0076288390337140E-006
  0.14180000000000004         -3.1589074751536828E-006
  0.14290000000000003         -8.7834441728773527E-006
  0.14400000000000002         -1.5887577319517732E-005
  0.14510000000000001         -2.4534456315450370E-005
  0.14620000000000000         -3.4870794479502365E-005
  0.14730000000000004         -4.7148343583103269E-005
  0.14840000000000003         -6.1725855630356818E-005
  0.14950000000000002         -7.9063291195780039E-005
  0.15060000000000001         -9.9726777989417315E-005
  0.15170000000000000         -1.2442159641068429E-004
  0.15280000000000005         -1.5406076272483915E-004
  0.15390000000000004         -1.8986074428539723E-004
  0.15500000000000003         -2.3343996144831181E-004
  0.15610000000000002         -2.8689025202766061E-004
  0.15720000000000001         -3.5279861185699701E-004
  0.15830000000000000         -4.3421739246696234E-004
  0.15940000000000004         -5.3460727212950587E-004
  0.16050000000000003         -6.5779790747910738E-004
  0.16160000000000002         -8.0801162403076887E-004
  0.16270000000000001         -9.8998052999377251E-004
  0.16380000000000000         -1.2091549579054117E-003
  0.16490000000000005         -1.4719638274982572E-003
  0.16600000000000004         -1.7860668012872338E-003
  0.16710000000000003         -2.1605449728667736E-003
  0.16820000000000002         -2.6060072705149651E-003
  0.16930000000000001         -3.1346257310360670E-003
  0.17040000000000000         -3.7601410876959562E-003
  0.17150000000000004         -4.4978996738791466E-003
  0.17260000000000003         -5.3649777546525002E-003
  0.17370000000000002         -6.3803843222558498E-003
  0.17480000000000001         -7.5653274543583393E-003
  0.17590000000000000         -8.9434776455163956E-003
  0.17700000000000005         -1.0541188530623913E-002
  0.17810000000000004         -1.2387607246637344E-002
  0.17920000000000003         -1.4514682814478874E-002
  0.18030000000000002         -1.6957083716988564E-002
  0.18140000000000001         -1.9752027466893196E-002
  0.18250000000000000         -2.2939085960388184E-002
  0.18360000000000004         -2.6560006663203239E-002
  0.18470000000000003         -3.0658474192023277E-002
  0.18580000000000002         -3.5279847681522369E-002
  0.18690000000000001         -4.0470868349075317E-002
  0.18800000000000000         -4.6279244124889374E-002
  0.18910000000000005         -5.2753165364265442E-002
  0.19020000000000004         -5.9940539300441742E-002
  0.19130000000000003         -6.7888066172599792E-002
  0.19240000000000002         -7.6640062034130096E-002
  0.19350000000000001         -8.6236961185932159E-002
  0.19460000000000005         -9.6713893115520477E-002
  0.19570000000000004        -0.10809928178787231
  0.19680000000000003        -0.12041333317756653
  0.19790000000000002        -0.13366648554801941
  0.19900000000000001        -0.14785791933536530
  0.20010000000000000        -0.16297368705272675
  0.20120000000000005        -0.17898462712764740
  0.20230000000000004        -0.19584438204765320
  0.20340000000000003        -0.21348756551742554
  0.20450000000000002        -0.23182764649391174
  0.20560000000000000        -0.25075522065162659
  0.20670000000000005        -0.27013662457466125
  0.20780000000000004        -0.28981339931488037
  0.20890000000000003        -0.30960172414779663
