 -0.12000000000000000          0.0000000000000000
 -0.11889999999999999          0.0000000000000000
 -0.11780000000000000          0.0000000000000000
 -0.11670000000000000          0.0000000000000000
 -0.11559999999999999          0.0000000000000000
 -0.11449999999999999          0.0000000000000000
 -0.11340000000000000          0.0000000000000000
 -0.11230000000000000          0.0000000000000000
 -0.11119999999999999          0.0000000000000000
 -0.11009999999999999          0.0000000000000000
 -0.10900000000000000          0.0000000000000000
 -0.10790000000000000         -2.6898080968142868E-037
 -0.10679999999999999          4.7698065267795914E-036
 -0.10569999999999999         -5.4157949702935418E-034
 -0.10460000000000000         -7.4146588290195311E-034
 -0.10349999999999999         -1.3831157650297856E-033
 -0.10239999999999999         -1.0228205567903134E-031
 -0.10130000000000000         -4.7815832913200563E-031
 -0.10020000000000000          1.9354218261712557E-031
  -9.9099999999999994E-002     5.7185419086147262E-030
  -9.7999999999999990E-002     5.0155052565404706E-030
  -9.6899999999999986E-002    -5.9989883039525502E-029
  -9.5799999999999996E-002    -1.7701634990094913E-028
  -9.4699999999999993E-002     1.9107167830152780E-028
  -9.3599999999999989E-002     1.9403520781827852E-027
  -9.2499999999999999E-002     2.8008194439221033E-027
  -9.1399999999999995E-002    -7.7417276198154366E-027
  -9.0299999999999991E-002    -3.5833559803917363E-026
  -8.9200000000000002E-002    -3.1187788451235719E-026
  -8.8099999999999984E-002     1.3967398624520218E-025
  -8.6999999999999994E-002     4.7602889344378980E-025
  -8.5899999999999990E-002     3.1184223786020251E-025
  -8.4799999999999986E-002    -1.6617593598904443E-024
  -8.3699999999999997E-002    -5.0116857901192852E-024
  -8.2599999999999993E-002    -3.2438656592436863E-024
  -8.1499999999999989E-002     1.4519589228046122E-023
  -8.0399999999999999E-002     4.3614702655483966E-023
  -7.9299999999999995E-002     3.3428277470440738E-023
  -7.8199999999999992E-002    -9.6246489354427570E-023
  -7.7100000000000002E-002    -3.1866085491323258E-022
  -7.5999999999999984E-002    -3.0623719180198997E-022
  -7.4899999999999994E-002     4.7275805485525957E-022
  -7.3799999999999991E-002     1.9589111128515372E-021
  -7.2699999999999987E-002     2.3646690527029396E-021
  -7.1599999999999997E-002    -1.4662961794561909E-021
  -7.0499999999999993E-002    -1.0061144808911660E-020
  -6.9399999999999989E-002    -1.5205749392245466E-020
  -6.8300000000000000E-002    -2.8894425004339084E-022
  -6.7199999999999996E-002     4.2316395251453480E-020
  -6.6099999999999992E-002     8.1467777759428866E-020
  -6.5000000000000002E-002     4.0462486397091810E-020
  -6.3899999999999985E-002    -1.3829785172699509E-019
  -6.2799999999999995E-002    -3.6327639928312237E-019
  -6.1699999999999991E-002    -3.2728179002424223E-019
  -6.0599999999999994E-002     2.9283372416750068E-019
  -5.9499999999999990E-002     1.3333287070614688E-018
  -5.8399999999999994E-002     1.7450646811997919E-018
  -5.7299999999999990E-002     6.3939368215032720E-020
  -5.6199999999999986E-002    -3.8883523072560875E-018
  -5.5099999999999996E-002    -7.1556507931624614E-018
  -5.3999999999999992E-002    -4.2230543985134191E-018
  -5.2899999999999989E-002     8.0485500782022146E-018
  -5.1799999999999985E-002     2.3345435710022845E-017
  -5.0699999999999995E-002     2.4304978455474158E-017
  -4.9599999999999991E-002    -5.6681219714410011E-018
  -4.8499999999999988E-002    -5.9556785728136279E-017
  -4.7399999999999998E-002    -9.2389139339917547E-017
  -4.6299999999999994E-002    -4.2299928722095751E-017
  -4.5199999999999990E-002     1.0721851572441301E-016
  -4.4099999999999986E-002     2.6554874649160421E-016
  -4.2999999999999997E-002     2.5106615068967058E-016
  -4.1899999999999993E-002    -6.8432182237924049E-017
  -4.0799999999999989E-002    -5.7813047968716114E-016
  -3.9699999999999985E-002    -8.5091272872963946E-016
  -3.8599999999999995E-002    -3.9380663418352797E-016
  -3.7499999999999992E-002     8.4390009001976190E-016
  -3.6399999999999988E-002     2.0890640393511194E-015
  -3.5299999999999984E-002     2.0086219556250890E-015
  -3.4199999999999994E-002    -2.3014197520298640E-016
  -3.3099999999999991E-002    -3.7339406130302948E-015
  -3.1999999999999987E-002    -5.7111907976296894E-015
  -3.0899999999999997E-002    -3.1955652012060406E-015
  -2.9799999999999993E-002     4.0055137754801268E-015
  -2.8699999999999989E-002     1.1493531515795793E-014
  -2.7599999999999986E-002     1.2105799117323197E-014
  -2.6499999999999996E-002     1.5212507385988709E-015
  -2.5399999999999992E-002    -1.6003379719499444E-014
  -2.4299999999999988E-002    -2.7418830891184388E-014
  -2.3199999999999985E-002    -1.9126210625041232E-014
  -2.2099999999999995E-002     1.0350059059859116E-014
  -2.0999999999999991E-002     4.3491740157192149E-014
  -1.9899999999999987E-002     5.1877982974995324E-014
  -1.8799999999999983E-002     1.7923679643890196E-014
  -1.7699999999999994E-002    -4.4641417976500411E-014
  -1.6599999999999990E-002    -9.1235606038391620E-014
  -1.5499999999999986E-002    -7.5385105601476210E-014
  -1.4399999999999996E-002     1.0129867763022677E-014
  -1.3299999999999992E-002     1.1346917735922599E-013
  -1.2199999999999989E-002     1.5068773052268059E-013
  -1.1099999999999985E-002     7.0314569867568205E-014
  -9.9999999999999950E-003    -9.1097898809958805E-014
  -8.8999999999999913E-003    -2.1557857224612648E-013
  -7.7999999999999875E-003    -1.8523255303735942E-013
  -6.6999999999999837E-003     1.2957282375682371E-014
  -5.5999999999999939E-003     2.4681561590529644E-013
  -4.4999999999999901E-003     3.1762830213222237E-013
  -3.3999999999999864E-003     1.2001379436684528E-013
  -2.2999999999999826E-003    -2.3839914417567165E-013
  -1.1999999999999927E-003    -4.7580992965090552E-013
  -9.9999999999988987E-005    -3.4159705771495685E-013
   1.0000000000000148E-003     1.5048707180560783E-013
   2.1000000000000185E-003     6.6119760491409330E-013
   3.2000000000000084E-003     7.3633037601245066E-013
   4.3000000000000121E-003     1.7496370834351599E-013
   5.4000000000000159E-003    -7.2524684825367447E-013
   6.5000000000000058E-003    -1.2894674477487156E-012
   7.6000000000000234E-003    -9.4114711683690455E-013
   8.7000000000000133E-003     2.8658992496863323E-013
   9.8000000000000032E-003     1.6261398694608631E-012
   1.0900000000000021E-002     2.0303424740075737E-012
   1.2000000000000011E-002     9.5930294957691231E-013
   1.3100000000000001E-002    -1.0758590199277940E-012
   1.4200000000000018E-002    -2.7052429307089509E-012
   1.5300000000000008E-002    -2.6174847879423258E-012
   1.6400000000000026E-002    -5.9988163525134808E-013
   1.7500000000000016E-002     2.1111105485277504E-012
   1.8600000000000005E-002     3.5690504371355125E-012
   1.9700000000000023E-002     2.5366997998682583E-012
   2.0800000000000013E-002    -4.4172505280284935E-013
   2.1900000000000003E-002    -3.2315172673186288E-012
   2.3000000000000020E-002    -3.6050450819002933E-012
   2.4100000000000010E-002    -1.0357021230228414E-012
   2.5200000000000000E-002     2.6279132949585948E-012
   2.6300000000000018E-002     4.3410591961390299E-012
   2.7400000000000008E-002     2.2307026018020260E-012
   2.8500000000000025E-002    -2.6031050145286505E-012
   2.9600000000000015E-002    -6.4451989752190020E-012
   3.0700000000000005E-002    -5.5777531031420136E-012
   3.1800000000000023E-002     5.9350197282800887E-013
   3.2900000000000013E-002     8.3702047029565740E-012
   3.4000000000000002E-002     1.1861402485213723E-011
   3.5100000000000020E-002     7.2448466496843889E-012
   3.6200000000000010E-002    -3.8408256609889779E-012
   3.7300000000000028E-002    -1.4594523506383794E-011
   3.8400000000000017E-002    -1.7366167531784882E-011
   3.9500000000000007E-002    -9.1974249397108743E-012
   4.0600000000000025E-002     5.5153282114972502E-012
   4.1700000000000015E-002     1.7573631785894328E-011
   4.2800000000000005E-002     1.9266713224830312E-011
   4.3900000000000022E-002     9.8774816451041580E-012
   4.5000000000000012E-002    -3.8540967292610695E-012
   4.6100000000000002E-002    -1.2874462780587681E-011
   4.7200000000000020E-002    -1.2676187356730484E-011
   4.8300000000000010E-002    -6.3635494443325946E-012
   4.9400000000000027E-002    -1.2623468893455114E-012
   5.0500000000000017E-002    -1.7870122699312208E-012
   5.1600000000000007E-002    -4.8467445334932080E-012
   5.2700000000000025E-002    -2.4855614528390690E-012
   5.3800000000000014E-002     9.6379172004334990E-012
   5.4900000000000004E-002     2.5207049988984487E-011
   5.6000000000000022E-002     2.9239347054677012E-011
   5.7100000000000012E-002     1.0028354882618551E-011
   5.8200000000000002E-002    -2.7288137027792203E-011
   5.9300000000000019E-002    -5.7962704080871674E-011
   6.0400000000000009E-002    -5.2121806870530918E-011
   6.1500000000000027E-002     5.1031580220253780E-013
   6.2600000000000017E-002     7.3911564368867033E-011
   6.3700000000000007E-002     1.1420432655118162E-010
   6.4800000000000024E-002     7.4449647835539423E-011
   6.5900000000000014E-002    -4.4435791851649142E-011
   6.7000000000000004E-002    -1.7782066097371541E-010
   6.8100000000000022E-002    -2.2672401456258484E-010
   6.9200000000000012E-002    -1.2277184824327492E-010
   7.0300000000000029E-002     1.1085888457218473E-010
   7.1400000000000019E-002     3.4929761860702513E-010
   7.2500000000000009E-002     4.2718947823594533E-010
   7.3600000000000027E-002     2.4441165757949079E-010
   7.4700000000000016E-002    -1.4861431529844538E-010
   7.5800000000000006E-002    -5.5010740407368530E-010
   7.6900000000000024E-002    -7.0823980014012022E-010
   7.8000000000000014E-002    -4.7499160160668907E-010
   7.9100000000000004E-002     8.1232305604306276E-011
   8.0200000000000021E-002     6.8482514103962444E-010
   8.1300000000000011E-002     9.9489050331413864E-010
   8.2400000000000029E-002     8.0451828532446257E-010
   8.3500000000000019E-002     1.7605679414334219E-010
   8.4600000000000009E-002    -5.7921406559913180E-010
   8.5700000000000026E-002    -1.0751567414146734E-009
   8.6800000000000016E-002    -1.0762836177846680E-009
   8.7900000000000006E-002    -6.3182015175300421E-010
   8.9000000000000024E-002    -2.7348760409107165E-011
   9.0100000000000013E-002     4.1962119889937810E-010
   9.1200000000000003E-002     5.8478877296153087E-010
   9.2300000000000021E-002     6.2171917614151084E-010
   9.3400000000000011E-002     8.2811957291539784E-010
   9.4500000000000028E-002     1.3633045803373989E-009
   9.5600000000000018E-002     2.0055179739131290E-009
   9.6700000000000008E-002     2.1446056042151440E-009
   9.7800000000000026E-002     1.0804337424730193E-009
   9.8900000000000016E-002    -1.4958075889026645E-009
  0.10000000000000001         -5.1066275652544846E-009
  0.10110000000000002         -8.4490991980601393E-009
  0.10220000000000001         -9.8153503103048934E-009
  0.10330000000000003         -7.8243145296141847E-009
  0.10440000000000002         -2.1185342369278715E-009
  0.10550000000000001          6.3402971761661320E-009
  0.10660000000000003          1.5555178478621201E-008
  0.10770000000000002          2.3227816114967936E-008
  0.10880000000000001          2.7555142168012026E-008
  0.10990000000000003          2.7646008149417867E-008
  0.11100000000000002          2.3314331798474086E-008
  0.11210000000000001          1.4360774791555286E-008
  0.11320000000000002         -2.3168089668956782E-010
  0.11430000000000001         -2.2686771572466569E-008
  0.11540000000000003         -5.6139217718964574E-008
  0.11650000000000002         -1.0381495485489722E-007
  0.11760000000000001         -1.6822809811856132E-007
  0.11870000000000003         -2.5101550704675901E-007
  0.11980000000000002         -3.5371422768548655E-007
  0.12090000000000001         -4.7921997747835121E-007
  0.12200000000000003         -6.3317497733805794E-007
  0.12310000000000001         -8.2445666294006514E-007
  0.12420000000000003         -1.0643996120052179E-006
  0.12530000000000002         -1.3651800827574334E-006
  0.12640000000000001         -1.7384666080033639E-006
  0.12750000000000003         -2.1955340798740508E-006
  0.12860000000000002         -2.7493861125549302E-006
  0.12970000000000001         -3.4183146908617346E-006
  0.13080000000000003         -4.2293754631828051E-006
  0.13190000000000002         -5.2200907703081612E-006
  0.13300000000000001         -6.4375362853752449E-006
  0.13410000000000000         -7.9354313129442744E-006
  0.13520000000000004         -9.7711490525398403E-006
  0.13630000000000003         -1.2004854397673625E-005
  0.13740000000000002         -1.4701989130116999E-005
  0.13850000000000001         -1.7938618839252740E-005
  0.13960000000000000         -2.1807598386658356E-005
  0.14070000000000005         -2.6423118470120244E-005
  0.14180000000000004         -3.1922274501994252E-005
  0.14290000000000003         -3.8464109820779413E-005
  0.14400000000000002         -4.6228269638959318E-005
  0.14510000000000001         -5.5415555834770203E-005
  0.14620000000000000         -6.6251530370209366E-005
  0.14730000000000004         -7.8992321505211294E-005
  0.14840000000000003         -9.3930073489900678E-005
  0.14950000000000002         -1.1139592970721424E-004
  0.15060000000000001         -1.3175977801438421E-004
  0.15170000000000000         -1.5542836626991630E-004
  0.15280000000000005         -1.8284485850017518E-004
  0.15390000000000004         -2.1449208725243807E-004
  0.15500000000000003         -2.5089949485845864E-004
  0.15610000000000002         -2.9265118064358830E-004
  0.15720000000000001         -3.4039127058349550E-004
  0.15830000000000000         -3.9482343709096313E-004
  0.15940000000000004         -4.5670440886169672E-004
  0.16050000000000003         -5.2683433750644326E-004
  0.16160000000000002         -6.0604838654398918E-004
  0.16270000000000001         -6.9521274417638779E-004
  0.16380000000000000         -7.9522514715790749E-004
  0.16490000000000005         -9.0701581211760640E-004
  0.16600000000000004         -1.0315444087609649E-003
  0.16710000000000003         -1.1697891168296337E-003
  0.16820000000000002         -1.3227277668192983E-003
  0.16930000000000001         -1.4913168270140886E-003
  0.17040000000000000         -1.6764700412750244E-003
  0.17150000000000004         -1.8790424801409245E-003
  0.17260000000000003         -2.0998176187276840E-003
  0.17370000000000002         -2.3394944146275520E-003
  0.17480000000000001         -2.5986665859818459E-003
  0.17590000000000000         -2.8777946718037128E-003
  0.17700000000000005         -3.1771699432283640E-003
  0.17810000000000004         -3.4968764521181583E-003
  0.17920000000000003         -3.8367561064660549E-003
  0.18030000000000002         -4.1963816620409489E-003
  0.18140000000000001         -4.5750360004603863E-003
  0.18250000000000000         -4.9716979265213013E-003
  0.18360000000000004         -5.3850258700549603E-003
  0.18470000000000003         -5.8133336715400219E-003
  0.18580000000000002         -6.2545682303607464E-003
  0.18690000000000001         -6.7062783055007458E-003
  0.18800000000000000         -7.1655982173979282E-003
  0.18910000000000005         -7.6292403973639011E-003
  0.19020000000000004         -8.0935042351484299E-003
  0.19130000000000003         -8.5542844608426094E-003
  0.19240000000000002         -9.0070953592658043E-003
  0.19350000000000001         -9.4470828771591187E-003
  0.19460000000000005         -9.8690604791045189E-003
  0.19570000000000004         -1.0267544537782669E-002
  0.19680000000000003         -1.0636805556714535E-002
  0.19790000000000002         -1.0970918461680412E-002
  0.19900000000000001         -1.1263834312558174E-002
  0.20010000000000000         -1.1509455740451813E-002
  0.20120000000000005         -1.1701712384819984E-002
  0.20230000000000004         -1.1834648437798023E-002
  0.20340000000000003         -1.1902498081326485E-002
  0.20450000000000002         -1.1899779550731182E-002
  0.20560000000000000         -1.1821389198303223E-002
  0.20670000000000005         -1.1662709526717663E-002
  0.20780000000000004         -1.1419717222452164E-002
  0.20890000000000003         -1.1089082807302475E-002
