 -0.12000000000000000          0.0000000000000000
 -0.11889999999999999          0.0000000000000000
 -0.11780000000000000          0.0000000000000000
 -0.11670000000000000          0.0000000000000000
 -0.11559999999999999          0.0000000000000000
 -0.11449999999999999          0.0000000000000000
 -0.11340000000000000          0.0000000000000000
 -0.11230000000000000          0.0000000000000000
 -0.11119999999999999          0.0000000000000000
 -0.11009999999999999          0.0000000000000000
 -0.10900000000000000         -2.2229818337185610E-031
 -0.10790000000000000          4.3865853100369734E-030
 -0.10679999999999999         -4.5569264710101115E-028
 -0.10569999999999999          2.8633318076877589E-028
 -0.10460000000000000         -3.6509276176765514E-028
 -0.10349999999999999         -8.2857265622790330E-026
 -0.10239999999999999         -2.2725396489232440E-025
 -0.10130000000000000          8.6576606740248987E-025
 -0.10020000000000000          4.0109916715888225E-024
  -9.9099999999999994E-002    -5.1471387295720695E-024
  -9.7999999999999990E-002    -5.3142447917329374E-023
  -9.6899999999999986E-002    -4.2992610101070297E-023
  -9.5799999999999996E-002     4.0092102343382162E-022
  -9.4699999999999993E-002     1.1414812754709227E-021
  -9.3599999999999989E-002    -7.3455607391528289E-022
  -9.2499999999999999E-002    -9.4239790537307133E-021
  -9.1399999999999995E-002    -1.4503542522434703E-020
  -9.0299999999999991E-002     2.7055872608607651E-020
  -8.9200000000000002E-002     1.3736861770636833E-019
  -8.8099999999999984E-002     1.3677110896076948E-019
  -8.6999999999999994E-002    -4.1367074959108462E-019
  -8.5899999999999990E-002    -1.4953843492037233E-018
  -8.4799999999999986E-002    -1.1374584384659294E-018
  -8.3699999999999997E-002     4.2295444575995101E-018
  -8.2599999999999993E-002     1.3219532365595783E-017
  -8.1499999999999989E-002     9.3650047143579079E-018
  -8.0399999999999999E-002    -3.2464092803072660E-017
  -7.9299999999999995E-002    -9.8750694263487264E-017
  -7.8199999999999992E-002    -7.6644272540672898E-017
  -7.7100000000000002E-002     1.9408109595574126E-016
  -7.5999999999999984E-002     6.3353008726717741E-016
  -7.4899999999999994E-002     5.8442790495220084E-016
  -7.3799999999999991E-002    -8.9288887579892480E-016
  -7.2699999999999987E-002    -3.5014237162618849E-015
  -7.1599999999999997E-002    -3.9370929950997662E-015
  -7.0499999999999993E-002     2.8514436668238777E-015
  -6.9399999999999989E-002     1.6579675525822853E-014
  -6.8300000000000000E-002     2.2883088043250226E-014
  -6.7199999999999996E-002    -2.8545162788400427E-015
  -6.6099999999999992E-002    -6.6245199972260471E-014
  -6.5000000000000002E-002    -1.1384713701281801E-013
  -6.3899999999999985E-002    -3.8196818619292902E-014
  -6.2799999999999995E-002     2.1568032462001424E-013
  -6.1699999999999991E-002     4.8274454095623143E-013
  -6.0599999999999994E-002     3.4742103941984293E-013
  -5.9499999999999990E-002    -5.1963582091765770E-013
  -5.8399999999999994E-002    -1.7296374835856776E-012
  -5.7299999999999990E-002    -1.8769966050186104E-012
  -5.6199999999999986E-002     5.6611079756255234E-013
  -5.5099999999999996E-002     5.1238800528874417E-012
  -5.3999999999999992E-002     7.7181880678289794E-012
  -5.2899999999999989E-002     2.5002302745519289E-012
  -5.1799999999999985E-002    -1.1849044315170865E-011
  -5.0699999999999995E-002    -2.5564168837366452E-011
  -4.9599999999999991E-002    -1.9764927541854327E-011
  -4.8499999999999988E-002     1.7401925386795192E-011
  -4.7399999999999998E-002     6.8530216223994245E-011
  -4.6299999999999994E-002     8.2172893489662613E-011
  -4.5199999999999990E-002     7.2824645619418149E-012
  -4.4099999999999986E-002    -1.4282056093328777E-010
  -4.2999999999999997E-002    -2.5207907983215705E-010
  -4.1899999999999993E-002    -1.5718998325198186E-010
  -4.0799999999999989E-002     1.9579844690031933E-010
  -3.9699999999999985E-002     6.0321353467784888E-010
  -3.8599999999999995E-002     6.4512434283514608E-010
  -3.7499999999999992E-002     6.1627890290960607E-012
  -3.6399999999999988E-002    -1.0955423235259332E-009
  -3.5299999999999984E-002    -1.7837370469564462E-009
  -3.4199999999999994E-002    -1.0454823673455849E-009
  -3.3099999999999991E-002     1.2616114819508084E-009
  -3.1999999999999987E-002     3.7131200336659731E-009
  -3.0899999999999997E-002     3.8722745010488779E-009
  -2.9799999999999993E-002     2.3713647712142460E-010
  -2.8699999999999989E-002    -5.6824394079058038E-009
  -2.7599999999999986E-002    -9.2535650253466883E-009
  -2.6499999999999996E-002    -5.7355999949493253E-009
  -2.5399999999999992E-002     5.0489110670071113E-009
  -2.4299999999999988E-002     1.6287666326775252E-008
  -2.3199999999999985E-002     1.7507140626094042E-008
  -2.2099999999999995E-002     3.0292521824293317E-009
  -2.0999999999999991E-002    -2.0459047789245233E-008
  -1.9899999999999987E-002    -3.4992183373105945E-008
  -1.8799999999999983E-002    -2.3645259972226995E-008
  -1.7699999999999994E-002     1.3199135118213690E-008
  -1.6599999999999990E-002     5.1607180751034321E-008
  -1.5499999999999986E-002     5.7573899425733543E-008
  -1.4399999999999996E-002     1.4730790809380778E-008
  -1.3299999999999992E-002    -5.4645266089892175E-008
  -1.2199999999999989E-002    -9.7183196601235977E-008
  -1.1099999999999985E-002    -6.6974529033814179E-008
  -9.9999999999999950E-003     3.0522276261990555E-008
  -8.8999999999999913E-003     1.2795594273029565E-007
  -7.7999999999999875E-003     1.3871367343654128E-007
  -6.6999999999999837E-003     2.9477769558639011E-008
  -5.5999999999999939E-003    -1.3474867444074334E-007
  -4.4999999999999901E-003    -2.2184036652106442E-007
  -3.3999999999999864E-003    -1.3289059097587597E-007
  -2.2999999999999826E-003     1.0000245964647547E-007
  -1.1999999999999927E-003     3.0712703846802469E-007
  -9.9999999999988987E-005     2.9576037263723265E-007
   1.0000000000000148E-003     1.5392014773851770E-008
   2.1000000000000185E-003    -3.5998263570036215E-007
   3.2000000000000084E-003    -5.2603166977860383E-007
   4.3000000000000121E-003    -2.8003310603708087E-007
   5.4000000000000159E-003     2.7768061272581690E-007
   6.5000000000000058E-003     7.5416642175696325E-007
   7.6000000000000234E-003     7.2678642482060241E-007
   8.7000000000000133E-003     9.2400377127432876E-008
   9.8000000000000032E-003    -7.7301814371821820E-007
   1.0900000000000021E-002    -1.2192051599413389E-006
   1.2000000000000011E-002    -7.9678426345708431E-007
   1.3100000000000001E-002     3.3536554155944032E-007
   1.4200000000000018E-002     1.4191276704877964E-006
   1.5300000000000008E-002     1.5948993450365379E-006
   1.6400000000000026E-002     5.7302497680211673E-007
   1.7500000000000016E-002    -1.0355940958106657E-006
   1.8600000000000005E-002    -2.0580791897373274E-006
   1.9700000000000023E-002    -1.6082891534097143E-006
   2.0800000000000013E-002     1.5592959812238405E-007
   2.1900000000000003E-002     1.9969138520536944E-006
   2.3000000000000020E-002     2.4320786451426102E-006
   2.4100000000000010E-002     9.0429000465519493E-007
   2.5200000000000000E-002    -1.6119917063406319E-006
   2.6300000000000018E-002    -3.1598756322637200E-006
   2.7400000000000008E-002    -2.2506776531372452E-006
   2.8500000000000025E-002     8.1969312759611057E-007
   2.9600000000000015E-002     3.8921702980587725E-006
   3.0700000000000005E-002     4.3831696530105546E-006
   3.1800000000000023E-002     1.3266252381072263E-006
   3.2900000000000013E-002    -3.5418204333836911E-006
   3.4000000000000002E-002    -6.7004857555730268E-006
   3.5100000000000020E-002    -5.3460726121556945E-006
   3.6200000000000010E-002     2.7461842933007574E-007
   3.7300000000000028E-002     6.5967024056590162E-006
   3.8400000000000017E-002     9.0412586359889247E-006
   3.9500000000000007E-002     5.4077759159554262E-006
   4.0600000000000025E-002    -2.1939706584817031E-006
   4.1700000000000015E-002    -8.5659603428211994E-006
   4.2800000000000005E-002    -9.1582014647428878E-006
   4.3900000000000022E-002    -3.5881196254194947E-006
   4.5000000000000012E-002     3.8934576878091320E-006
   4.6100000000000002E-002     7.6178312156116590E-006
   4.7200000000000020E-002     5.0521184675744735E-006
   4.8300000000000010E-002    -1.0015451152867172E-006
   4.9400000000000027E-002    -4.6486229621223174E-006
   5.0500000000000017E-002    -2.0934949134243652E-006
   5.1600000000000007E-002     4.4811781663156580E-006
   5.2700000000000025E-002     8.0674690252635628E-006
   5.3800000000000014E-002     2.8455360734369606E-006
   5.4900000000000004E-002    -9.5367549874936230E-006
   5.6000000000000022E-002    -1.9209601305192336E-005
   5.7100000000000012E-002    -1.4960788575990591E-005
   5.8200000000000002E-002     5.4928727877268102E-006
   5.9300000000000019E-002     3.0180015528458171E-005
   6.0400000000000009E-002     3.8668444176437333E-005
   6.1500000000000027E-002     1.7159281924250536E-005
   6.2600000000000017E-002    -2.7367184884496965E-005
   6.3700000000000007E-002    -6.6154920205008239E-005
   6.4800000000000024E-002    -6.5391221141908318E-005
   6.5900000000000014E-002    -1.1974479093623813E-005
   6.7000000000000004E-002     6.9823654484935105E-005
   6.8100000000000022E-002     1.2632212019525468E-004
   6.9200000000000012E-002     1.0716055840020999E-004
   7.0300000000000029E-002     3.9630531318834983E-006
   7.1400000000000019E-002    -1.3268338807392865E-004
   7.2500000000000009E-002    -2.1541677415370941E-004
   7.3600000000000027E-002    -1.7374135495629162E-004
   7.4700000000000016E-002    -6.9890757004031911E-006
   7.5800000000000006E-002     2.0111507910769433E-004
   7.6900000000000024E-002     3.2343211933039129E-004
   7.8000000000000014E-002     2.6690220693126321E-004
   7.9100000000000004E-002     3.9148973883129656E-005
   8.0200000000000021E-002    -2.4255905009340495E-004
   8.1300000000000011E-002    -4.1355160647071898E-004
   8.2400000000000029E-002    -3.6204388015903533E-004
   8.3500000000000019E-002    -1.0482453217264265E-004
   8.4600000000000009E-002     2.1427111641969532E-004
   8.5700000000000026E-002     4.0889921365305781E-004
   8.6800000000000016E-002     3.6826476571150124E-004
   8.7900000000000006E-002     1.3230188051238656E-004
   8.9000000000000024E-002    -1.3008370297029614E-004
   9.0100000000000013E-002    -2.3285584757104516E-004
   9.1200000000000003E-002    -1.0603221016936004E-004
   9.2300000000000021E-002     1.3993079483043402E-004
   9.3400000000000011E-002     2.7159720775671303E-004
   9.4500000000000028E-002     8.8425797002855688E-005
   9.5600000000000018E-002    -4.1569047607481480E-004
   9.6700000000000008E-002    -9.9422223865985870E-004
   9.7800000000000026E-002    -1.2494759866967797E-003
   9.8900000000000016E-002    -8.5502048023045063E-004
  0.10000000000000001          2.2158595675136894E-004
  0.10110000000000002          1.6329634236171842E-003
  0.10220000000000001          2.7744374237954617E-003
  0.10330000000000003          3.0700848437845707E-003
  0.10440000000000002          2.2754992824047804E-003
  0.10550000000000001          6.2510132556781173E-004
  0.10660000000000003         -1.2745048152282834E-003
  0.10770000000000002         -2.7648843824863434E-003
  0.10880000000000001         -3.5014650784432888E-003
  0.10990000000000003         -3.6550851073116064E-003
  0.11100000000000002         -3.8194896187633276E-003
  0.11210000000000001         -4.6598110347986221E-003
  0.11320000000000002         -6.4978189766407013E-003
  0.11430000000000001         -9.0890722349286079E-003
  0.11540000000000003         -1.1755681596696377E-002
  0.11650000000000002         -1.3833511620759964E-002
  0.11760000000000001         -1.5185568481683731E-002
  0.11870000000000003         -1.6454685479402542E-002
  0.11980000000000002         -1.8846839666366577E-002
  0.12090000000000001         -2.3509895429015160E-002
  0.12200000000000003         -3.0848266556859016E-002
  0.12310000000000001         -4.0218058973550797E-002
  0.12420000000000003         -5.0282519310712814E-002
  0.12530000000000002         -5.9924878180027008E-002
  0.12640000000000001         -6.9239817559719086E-002
  0.12750000000000003         -7.9983308911323547E-002
  0.12860000000000002         -9.5100119709968567E-002
  0.12970000000000001        -0.11746267229318619
  0.13080000000000003        -0.14847671985626221
  0.13190000000000002        -0.18738423287868500
  0.13300000000000001        -0.23178067803382874
  0.13410000000000000        -0.27919438481330872
  0.13520000000000004        -0.32891216874122620
  0.13630000000000003        -0.38299503922462463
  0.13740000000000002        -0.44586414098739624
  0.13850000000000001        -0.52260708808898926
  0.13960000000000000        -0.61698198318481445
  0.14070000000000005        -0.73027187585830688
  0.14180000000000004        -0.86170870065689087
  0.14290000000000003         -1.0101735591888428
  0.14400000000000002         -1.1761339902877808
  0.14510000000000001         -1.3625738620758057
  0.14620000000000000         -1.5742381811141968
  0.14730000000000004         -1.8156812191009521
  0.14840000000000003         -2.0893418788909912
  0.14950000000000002         -2.3950028419494629
  0.15060000000000001         -2.7311756610870361
  0.15170000000000000         -3.0974695682525635
  0.15280000000000005         -3.4964945316314697
  0.15390000000000004         -3.9340119361877441
  0.15500000000000003         -4.4167475700378418
  0.15610000000000002         -4.9491200447082520
  0.15720000000000001         -5.5306992530822754
  0.15830000000000000         -6.1560740470886230
  0.15940000000000004         -6.8172731399536133
  0.16050000000000003         -7.5073895454406738
  0.16160000000000002         -8.2232961654663086
  0.16270000000000001         -8.9653081893920898
  0.16380000000000000         -9.7341909408569336
  0.16490000000000005         -10.527362823486328
  0.16600000000000004         -11.335661888122559
  0.16710000000000003         -12.143895149230957
  0.16820000000000002         -12.934068679809570
  0.16930000000000001         -13.689259529113770
  0.17040000000000000         -14.395985603332520
  0.17150000000000004         -15.043757438659668
  0.17260000000000003         -15.621290206909180
  0.17370000000000002         -16.111967086791992
  0.17480000000000001         -16.492460250854492
  0.17590000000000000         -16.733093261718750
  0.17700000000000005         -16.802541732788086
  0.17810000000000004         -16.671613693237305
  0.17920000000000003         -16.318567276000977
  0.18030000000000002         -15.726768493652344
  0.18140000000000001         -14.882818222045898
  0.18250000000000000         -13.773896217346191
  0.18360000000000004         -12.381191253662109
  0.18470000000000003         -10.682385444641113
  0.18580000000000002         -8.6563396453857422
  0.18690000000000001         -6.2875213623046875
  0.18800000000000000         -3.5726740360260010
  0.18910000000000005        -0.51481133699417114
  0.19020000000000004          2.8765544891357422
  0.19130000000000003          6.5871658325195312
  0.19240000000000002          10.599732398986816
  0.19350000000000001          14.885949134826660
  0.19460000000000005          19.414608001708984
  0.19570000000000004          24.149524688720703
  0.19680000000000003          29.045984268188477
  0.19790000000000002          34.046951293945312
  0.19900000000000001          39.089736938476562
  0.20010000000000000          44.105594635009766
  0.20120000000000005          49.026275634765625
  0.20230000000000004          53.787876129150391
  0.20340000000000003          58.319202423095703
  0.20450000000000002          62.536952972412109
  0.20560000000000000          66.354530334472656
  0.20670000000000005          69.680740356445312
  0.20780000000000004          72.432746887207031
  0.20890000000000003          74.539413452148438
