 -0.12000000000000000          0.0000000000000000
 -0.11889999999999999          0.0000000000000000
 -0.11780000000000000          0.0000000000000000
 -0.11670000000000000         -5.6460485793650150E-003
 -0.11559999999999999         -3.1935378909111023E-002
 -0.11449999999999999         -7.5036704540252686E-002
 -0.11340000000000000         -5.4554086178541183E-002
 -0.11230000000000000         0.16782417893409729
 -0.11119999999999999         0.58654248714447021
 -0.11009999999999999         0.81689858436584473
 -0.10900000000000000         0.24701437354087830
 -0.10790000000000000         -1.2388312816619873
 -0.10679999999999999         -2.5764393806457520
 -0.10569999999999999         -1.9627331495285034
 -0.10460000000000000          1.3403476476669312
 -0.10349999999999999          5.3848996162414551
 -0.10239999999999999          6.3540034294128418
 -0.10130000000000000          2.1063735485076904
 -0.10020000000000000         -4.6282658576965332
  -9.9099999999999994E-002    -7.4865379333496094
  -9.7999999999999990E-002    -2.5251696109771729
  -9.6899999999999986E-002     6.2369232177734375
  -9.5799999999999996E-002     8.5827331542968750
  -9.4699999999999993E-002    -2.1483039855957031
  -9.3599999999999989E-002    -19.673616409301758
  -9.2499999999999999E-002    -26.488315582275391
  -9.1399999999999995E-002    -8.4210615158081055
  -9.0299999999999991E-002     29.710668563842773
  -8.9200000000000002E-002     63.284160614013672
  -8.8099999999999984E-002     66.060340881347656
  -8.6999999999999994E-002     33.025268554687500
  -8.5899999999999990E-002    -13.477462768554688
  -8.4799999999999986E-002    -41.988513946533203
  -8.3699999999999997E-002    -38.998466491699219
  -8.2599999999999993E-002    -19.241945266723633
  -8.1499999999999989E-002    -8.5076684951782227
  -8.0399999999999999E-002    -15.229190826416016
  -7.9299999999999995E-002    -19.555812835693359
  -7.8199999999999992E-002     7.4497203826904297
  -7.7100000000000002E-002     71.986167907714844
  -7.5999999999999984E-002     144.79125976562500
  -7.4899999999999994E-002     182.01199340820312
  -7.3799999999999991E-002     161.37452697753906
  -7.2699999999999987E-002     99.679954528808594
  -7.1599999999999997E-002     35.479106903076172
  -7.0499999999999993E-002    -5.2607102394104004
  -6.9399999999999989E-002    -26.807445526123047
  -6.8300000000000000E-002    -49.194725036621094
  -6.7199999999999996E-002    -79.525527954101562
  -6.6099999999999992E-002    -100.77770996093750
  -6.5000000000000002E-002    -90.066055297851562
  -6.3899999999999985E-002    -46.338657379150391
  -6.2799999999999995E-002     2.6012990474700928
  -6.1699999999999991E-002     21.429412841796875
  -6.0599999999999994E-002    -5.7540268898010254
  -5.9499999999999990E-002    -70.950736999511719
  -5.8399999999999994E-002    -162.81509399414062
  -5.7299999999999990E-002    -286.75003051757812
  -5.6199999999999986E-002    -460.02975463867188
  -5.5099999999999996E-002    -687.03784179687500
  -5.3999999999999992E-002    -945.12658691406250
  -5.2899999999999989E-002    -1202.9553222656250
  -5.1799999999999985E-002    -1457.7191162109375
  -5.0699999999999995E-002    -1753.7186279296875
  -4.9599999999999991E-002    -2160.1618652343750
  -4.8499999999999988E-002    -2727.1896972656250
  -4.7399999999999998E-002    -3462.6074218750000
  -4.6299999999999994E-002    -4351.6406250000000
  -4.5199999999999990E-002    -5398.0146484375000
  -4.4099999999999986E-002    -6643.5273437500000
  -4.2999999999999997E-002    -8147.3120117187500
  -4.1899999999999993E-002    -9950.7177734375000
  -4.0799999999999989E-002    -12068.087890625000
  -3.9699999999999985E-002    -14514.882812500000
  -3.8599999999999995E-002    -17340.929687500000
  -3.7499999999999992E-002    -20630.867187500000
  -3.6399999999999988E-002    -24470.363281250000
  -3.5299999999999984E-002    -28917.917968750000
  -3.4199999999999994E-002    -34017.566406250000
  -3.3099999999999991E-002    -39840.101562500000
  -3.1999999999999987E-002    -46503.953125000000
  -3.0899999999999997E-002    -54144.828125000000
  -2.9799999999999993E-002    -62858.820312500000
  -2.8699999999999989E-002    -72683.218750000000
  -2.7599999999999986E-002    -83641.859375000000
  -2.6499999999999996E-002    -95815.625000000000
  -2.5399999999999992E-002    -109358.94531250000
  -2.4299999999999988E-002    -124434.78906250000
  -2.3199999999999985E-002    -141128.81250000000
  -2.2099999999999995E-002    -159428.81250000000
  -2.0999999999999991E-002    -179304.26562500000
  -1.9899999999999987E-002    -200804.85937500000
  -1.8799999999999983E-002    -224073.98437500000
  -1.7699999999999994E-002    -249250.68750000000
  -1.6599999999999990E-002    -276341.93750000000
  -1.5499999999999986E-002    -305195.00000000000
  -1.4399999999999996E-002    -335603.40625000000
  -1.3299999999999992E-002    -367434.15625000000
  -1.2199999999999989E-002    -400652.12500000000
  -1.1099999999999985E-002    -435207.18750000000
  -9.9999999999999950E-003    -470891.93750000000
  -8.8999999999999913E-003    -507307.03125000000
  -7.7999999999999875E-003    -543987.18750000000
  -6.6999999999999837E-003    -580544.81250000000
  -5.5999999999999939E-003    -616698.31250000000
  -4.4999999999999901E-003    -652138.18750000000
  -3.3999999999999864E-003    -686371.37500000000
  -2.2999999999999826E-003    -718704.93750000000
  -1.1999999999999927E-003    -748385.56250000000
  -9.9999999999988987E-005    -774764.68750000000
   1.0000000000000148E-003    -797311.37500000000
   2.1000000000000185E-003    -815489.18750000000
   3.2000000000000084E-003    -828589.06250000000
   4.3000000000000121E-003    -835740.06250000000
   5.4000000000000159E-003    -836097.00000000000
   6.5000000000000058E-003    -829012.31250000000
   7.6000000000000234E-003    -814037.31250000000
   8.7000000000000133E-003    -790780.87500000000
   9.8000000000000032E-003    -758725.68750000000
   1.0900000000000021E-002    -717281.31250000000
   1.2000000000000011E-002    -665957.00000000000
   1.3100000000000001E-002    -604554.81250000000
   1.4200000000000018E-002    -533149.12500000000
   1.5300000000000008E-002    -451908.46875000000
   1.6400000000000026E-002    -360969.06250000000
   1.7500000000000016E-002    -260438.65625000000
   1.8600000000000005E-002    -150639.35937500000
   1.9700000000000023E-002    -32252.066406250000
   2.0800000000000013E-002     93724.890625000000
   2.1900000000000003E-002     226164.28125000000
   2.3000000000000020E-002     364023.28125000000
   2.4100000000000010E-002     506250.56250000000
   2.5200000000000000E-002     651635.37500000000
   2.6300000000000018E-002     798643.43750000000
   2.7400000000000008E-002     945507.31250000000
   2.8500000000000025E-002     1090452.2500000000
   2.9600000000000015E-002     1231874.5000000000
   3.0700000000000005E-002     1368305.5000000000
   3.1800000000000023E-002     1498209.7500000000
   3.2900000000000013E-002     1619882.2500000000
   3.4000000000000002E-002     1731525.5000000000
   3.5100000000000020E-002     1831505.0000000000
   3.6200000000000010E-002     1918504.7500000000
   3.7300000000000028E-002     1991490.3750000000
   3.8400000000000017E-002     2049537.1250000000
   3.9500000000000007E-002     2091697.5000000000
   4.0600000000000025E-002     2117098.5000000000
   4.1700000000000015E-002     2125178.5000000000
   4.2800000000000005E-002     2115785.5000000000
   4.3900000000000022E-002     2089148.7500000000
   4.5000000000000012E-002     2045640.6250000000
   4.6100000000000002E-002     1985696.2500000000
   4.7200000000000020E-002     1909834.2500000000
   4.8300000000000010E-002     1818850.1250000000
   4.9400000000000027E-002     1713899.5000000000
   5.0500000000000017E-002     1596383.0000000000
   5.1600000000000007E-002     1467796.8750000000
   5.2700000000000025E-002     1329595.1250000000
   5.3800000000000014E-002     1183259.5000000000
   5.4900000000000004E-002     1030391.9375000000
   5.6000000000000022E-002     872782.18750000000
   5.7100000000000012E-002     712295.31250000000
   5.8200000000000002E-002     550715.31250000000
   5.9300000000000019E-002     389647.12500000000
   6.0400000000000009E-002     230566.95312500000
   6.1500000000000027E-002     74920.351562500000
   6.2600000000000017E-002    -75793.742187500000
   6.3700000000000007E-002    -220248.06250000000
   6.4800000000000024E-002    -357348.34375000000
   6.5900000000000014E-002    -486184.00000000000
   6.7000000000000004E-002    -606046.87500000000
   6.8100000000000022E-002    -716303.75000000000
   6.9200000000000012E-002    -816343.93750000000
   7.0300000000000029E-002    -905753.50000000000
   7.1400000000000019E-002    -984366.75000000000
   7.2500000000000009E-002    -1052176.0000000000
   7.3600000000000027E-002    -1109289.7500000000
   7.4700000000000016E-002    -1155852.3750000000
   7.5800000000000006E-002    -1192024.0000000000
   7.6900000000000024E-002    -1218107.8750000000
   7.8000000000000014E-002    -1234577.6250000000
   7.9100000000000004E-002    -1242009.8750000000
   8.0200000000000021E-002    -1241004.8750000000
   8.1300000000000011E-002    -1232101.2500000000
   8.2400000000000029E-002    -1215830.6250000000
   8.3500000000000019E-002    -1192763.8750000000
   8.4600000000000009E-002    -1163560.2500000000
   8.5700000000000026E-002    -1128895.0000000000
   8.6800000000000016E-002    -1089403.1250000000
   8.7900000000000006E-002    -1045650.3750000000
   8.9000000000000024E-002    -998151.87500000000
   9.0100000000000013E-002    -947440.81250000000
   9.1200000000000003E-002    -894109.56250000000
   9.2300000000000021E-002    -838713.81250000000
   9.3400000000000011E-002    -781783.18750000000
   9.4500000000000028E-002    -723787.62500000000
   9.5600000000000018E-002    -665219.75000000000
   9.6700000000000008E-002    -606526.06250000000
   9.7800000000000026E-002    -548161.75000000000
   9.8900000000000016E-002    -490513.06250000000
  0.10000000000000001         -433892.00000000000
  0.10110000000000002         -378637.46875000000
  0.10220000000000001         -325062.40625000000
  0.10330000000000003         -273517.03125000000
  0.10440000000000002         -224299.92187500000
  0.10550000000000001         -177594.45312500000
  0.10660000000000003         -133530.78125000000
  0.10770000000000002         -92226.429687500000
  0.10880000000000001         -53890.386718750000
  0.10990000000000003         -18754.287109375000
  0.11100000000000002          13044.820312500000
  0.11210000000000001          41533.300781250000
  0.11320000000000002          66872.093750000000
  0.11430000000000001          89163.539062500000
  0.11540000000000003          108430.85156250000
  0.11650000000000002          124639.35937500000
  0.11760000000000001          137830.04687500000
  0.11870000000000003          148221.62500000000
  0.11980000000000002          156113.07812500000
  0.12090000000000001          161790.03125000000
  0.12200000000000003          165376.71875000000
  0.12310000000000001          166903.18750000000
  0.12420000000000003          166458.51562500000
  0.12530000000000002          164289.39062500000
  0.12640000000000001          160759.62500000000
  0.12750000000000003          156202.18750000000
  0.12860000000000002          150802.04687500000
  0.12970000000000001          144630.00000000000
  0.13080000000000003          137766.60937500000
  0.13190000000000002          130394.47656250000
  0.13300000000000001          122770.68750000000
  0.13410000000000000          115116.30468750000
  0.13520000000000004          107527.83593750000
  0.13630000000000003          100006.50000000000
  0.13740000000000002          92555.140625000000
  0.13850000000000001          85262.101562500000
  0.13960000000000000          78269.109375000000
  0.14070000000000005          71685.500000000000
  0.14180000000000004          65535.957031250000
  0.14290000000000003          59774.242187500000
  0.14400000000000002          54376.515625000000
  0.14510000000000001          49368.292968750000
  0.14620000000000000          44813.507812500000
  0.14730000000000004          40737.656250000000
  0.14840000000000003          37109.148437500000
  0.14950000000000002          33860.386718750000
  0.15060000000000001          30946.470703125000
  0.15170000000000000          28360.046875000000
  0.15280000000000005          26108.076171875000
  0.15390000000000004          24155.230468750000
  0.15500000000000003          22435.443359375000
  0.15610000000000002          20894.060546875000
  0.15720000000000001          19521.292968750000
  0.15830000000000000          18345.291015625000
  0.15940000000000004          17383.373046875000
  0.16050000000000003          16605.554687500000
  0.16160000000000002          15948.190429687500
  0.16270000000000001          15354.068359375000
  0.16380000000000000          14807.125976562500
  0.16490000000000005          14322.607421875000
  0.16600000000000004          13905.640625000000
  0.16710000000000003          13528.757812500000
  0.16820000000000002          13142.995117187500
  0.16930000000000001          12716.406250000000
  0.17040000000000000          12250.582031250000
  0.17150000000000004          11772.888671875000
  0.17260000000000003          11313.323242187500
  0.17370000000000002          10886.218750000000
  0.17480000000000001          10488.823242187500
  0.17590000000000000          10106.364257812500
  0.17700000000000005          9723.2890625000000
  0.17810000000000004          9327.8925781250000
  0.17920000000000003          8920.4345703125000
  0.18030000000000002          8518.9042968750000
  0.18140000000000001          8148.9794921875000
  0.18250000000000000          7822.7338867187500
  0.18360000000000004          7517.5122070312500
  0.18470000000000003          7193.1328125000000
  0.18580000000000002          6828.6318359375000
  0.18690000000000001          6459.5126953125000
  0.18800000000000000          6159.5556640625000
  0.18910000000000005          5980.3652343750000
  0.19020000000000004          5898.7553710937500
  0.19130000000000003          5826.3046875000000
  0.19240000000000002          5684.5102539062500
  0.19350000000000001          5475.3803710937500
  0.19460000000000005          5275.2817382812500
  0.19570000000000004          5158.3442382812500
  0.19680000000000003          5113.7895507812500
  0.19790000000000002          5049.2358398437500
  0.19900000000000001          4879.1562500000000
  0.20010000000000000          4613.6689453125000
  0.20120000000000005          4358.4003906250000
  0.20230000000000004          4217.8144531250000
  0.20340000000000003          4195.6430664062500
  0.20450000000000002          4188.8833007812500
  0.20560000000000000          4085.0097656250000
  0.20670000000000005          3869.8598632812500
  0.20780000000000004          3640.4455566406250
  0.20890000000000003          3510.6623535156250
