 -0.12000000000000000          0.0000000000000000
 -0.11889999999999999          0.0000000000000000
 -0.11780000000000000          0.0000000000000000
 -0.11670000000000000          0.0000000000000000
 -0.11559999999999999          0.0000000000000000
 -0.11449999999999999          0.0000000000000000
 -0.11340000000000000          0.0000000000000000
 -0.11230000000000000          0.0000000000000000
 -0.11119999999999999          0.0000000000000000
 -0.11009999999999999          0.0000000000000000
 -0.10900000000000000          0.0000000000000000
 -0.10790000000000000          0.0000000000000000
 -0.10679999999999999          3.4465854067380821E-031
 -0.10569999999999999          6.7016940684729815E-031
 -0.10460000000000000         -3.8295392634986851E-029
 -0.10349999999999999          8.2718053147137702E-029
 -0.10239999999999999          1.7156336815290833E-028
 -0.10130000000000000          0.0000000000000000
 -0.10020000000000000         -1.1764344694505158E-027
  -9.9099999999999994E-002     1.0195765273509141E-026
  -9.7999999999999990E-002    -4.0783061094036564E-026
  -9.6899999999999986E-002    -7.5291806044833013E-026
  -9.5799999999999996E-002     5.0194538390384646E-026
  -9.4699999999999993E-002     4.0155630712307717E-025
  -9.3599999999999989E-002    -2.0077815356153858E-025
  -9.2499999999999999E-002     8.0311261424615433E-025
  -9.1399999999999995E-002     3.2124504569846173E-024
  -9.0299999999999991E-002    -3.2124504569846173E-024
  -8.9200000000000002E-002     6.4249009139692347E-024
  -8.8099999999999984E-002    -1.2849801827938469E-023
  -8.6999999999999994E-002    -1.0279841462350775E-022
  -8.5899999999999990E-002     1.0279841462350775E-022
  -8.4799999999999986E-002     1.0279841462350775E-022
  -8.3699999999999997E-002     4.1119365849403102E-022
  -8.2599999999999993E-002    -4.1119365849403102E-022
  -8.1499999999999989E-002    -4.1119365849403102E-022
  -8.0399999999999999E-002     8.2238731698806204E-022
  -7.9299999999999995E-002    -1.6447746339761241E-021
  -7.8199999999999992E-002     0.0000000000000000
  -7.7100000000000002E-002    -3.2895492679522482E-021
  -7.5999999999999984E-002     0.0000000000000000
  -7.4899999999999994E-002     0.0000000000000000
  -7.3799999999999991E-002     2.6316394143617985E-020
  -7.2699999999999987E-002     1.3158197071808993E-020
  -7.1599999999999997E-002    -7.8949180815266822E-020
  -7.0499999999999993E-002    -1.0526557657447194E-019
  -6.9399999999999989E-002     5.2632788287235970E-020
  -6.8300000000000000E-002     2.6316394466735412E-019
  -6.7199999999999996E-002     1.1579213358568428E-018
  -6.6099999999999992E-002    -1.6842492251915511E-018
  -6.5000000000000002E-002    -1.3684524502316955E-018
  -6.3899999999999985E-002    -4.2106230629788776E-019
  -6.2799999999999995E-002     4.2106231146776659E-018
  -6.1699999999999991E-002     4.2106231146776659E-018
  -6.0599999999999994E-002    -3.7895608859279606E-018
  -5.9499999999999990E-002    -5.0527475721770766E-018
  -5.8399999999999994E-002    -1.1789744886533587E-017
  -5.7299999999999990E-002    -3.3684984503831021E-018
  -5.6199999999999986E-002     3.2000736002422506E-017
  -5.5099999999999996E-002     2.9895422377132142E-017
  -5.3999999999999992E-002     3.7053482747418970E-017
  -5.2899999999999989E-002    -5.3895975206129634E-017
  -5.1799999999999985E-002    -1.1452895268969945E-016
  -5.0699999999999995E-002    -1.2126594834969474E-016
  -4.9599999999999991E-002     1.3473993801532408E-017
  -4.8499999999999988E-002     2.6947987933937062E-016
  -4.7399999999999998E-002     2.4253189669938948E-016
  -4.6299999999999994E-002     2.6947987603064817E-017
  -4.5199999999999990E-002    -2.1558390082451853E-016
  -4.4099999999999986E-002    -5.9285572395870352E-016
  -4.2999999999999997E-002    -3.2337584461933290E-016
  -4.1899999999999993E-002     1.6168792230966645E-016
  -4.0799999999999989E-002     1.2665554487769097E-015
  -3.9699999999999985E-002     1.7246712065961483E-015
  -3.8599999999999995E-002    -2.1558390082451853E-016
  -3.7499999999999992E-002    -1.2935033784773316E-015
  -3.6399999999999988E-002    -3.8266140642729141E-015
  -3.5299999999999984E-002    -4.7428457916696282E-015
  -3.4199999999999994E-002     0.0000000000000000
  -3.3099999999999991E-002     1.2503866486050091E-014
  -3.1999999999999987E-002     1.3069774280308373E-014
  -3.0899999999999997E-002     1.7246712065961483E-015
  -2.9799999999999993E-002    -1.7246712277719720E-014
  -2.8699999999999989E-002    -2.9319411888563060E-014
  -2.7599999999999986E-002    -2.0696054055637306E-014
  -2.6499999999999996E-002     2.4145397527620786E-014
  -2.5399999999999992E-002     6.3812833055870710E-014
  -2.4299999999999988E-002     5.8638823777126120E-014
  -2.3199999999999985E-002    -1.3797369652769186E-014
  -2.2099999999999995E-002    -9.3132248332565559E-014
  -2.0999999999999991E-002    -1.3797369822175776E-013
  -1.9899999999999987E-002    -8.6233558000466809E-014
  -1.8799999999999983E-002     1.0348027366631832E-013
  -1.7699999999999994E-002     2.5180199722182883E-013
  -1.6599999999999990E-002     2.3024361280390981E-013
  -1.5499999999999986E-002    -6.8986848263845931E-015
  -1.4399999999999996E-002    -3.1733949777852655E-013
  -1.3299999999999992E-002    -3.8632636044193258E-013
  -1.2199999999999989E-002    -2.4145396511181250E-013
  -1.1099999999999985E-002     1.7246711600093362E-013
  -9.9999999999999950E-003     6.0708426133371240E-013
  -8.8999999999999913E-003     8.2784218933054654E-013
  -7.7999999999999875E-003     2.0696054733263664E-013
  -6.6999999999999837E-003    -8.0714612511051387E-013
  -5.5999999999999939E-003    -1.7660633155544558E-012
  -4.4999999999999901E-003    -1.4901159733210489E-012
  -3.3999999999999864E-003     4.4151582888861396E-013
  -2.2999999999999826E-003     2.9940292866487139E-012
  -1.1999999999999927E-003     4.3599689830697841E-012
  -9.9999999999988987E-005     2.6490949191215751E-012
   1.0000000000000148E-003    -3.5321266311089117E-012
   2.1000000000000185E-003    -9.8237269013923267E-012
   3.2000000000000084E-003    -9.7409432950334995E-012
   4.3000000000000121E-003    -2.2075791444430698E-013
   5.4000000000000159E-003     1.5121917606997215E-011
   6.5000000000000058E-003     2.4062613013242640E-011
   7.6000000000000234E-003     1.3686990776862196E-011
   8.7000000000000133E-003    -1.7439875932279136E-011
   9.8000000000000032E-003    -4.5034614926109384E-011
   1.0900000000000021E-002    -4.1723246385627633E-011
   1.2000000000000011E-002     6.8434953884310978E-012
   1.3100000000000001E-002     7.3733144589915867E-011
   1.4200000000000018E-002     9.4153247698347542E-011
   1.5300000000000008E-002     2.2517307463054692E-011
   1.6400000000000026E-002    -1.0993744109510928E-010
   1.7500000000000016E-002    -1.8146301128396658E-010
   1.8600000000000005E-002    -9.4042870713018090E-011
   1.9700000000000023E-002     1.3996051539955090E-010
   2.0800000000000013E-002     3.3466898696765668E-010
   2.1900000000000003E-002     2.6226040783505766E-010
   2.3000000000000020E-002    -1.3201323367795226E-010
   2.4100000000000010E-002    -5.7397059327612965E-010
   2.5200000000000000E-002    -6.1282395824591163E-010
   2.6300000000000018E-002    -3.3555203754476182E-011
   2.7400000000000008E-002     8.7331830656012244E-010
   2.8500000000000025E-002     1.2634527868371492E-009
   2.9600000000000015E-002     5.1833959346936354E-010
   3.0700000000000005E-002    -1.0808307582266252E-009
   3.1800000000000023E-002    -2.2499646590290467E-009
   3.2900000000000013E-002    -1.6053515183855893E-009
   3.4000000000000002E-002     9.5014207612820201E-010
   3.5100000000000020E-002     3.5533194164827364E-009
   3.6200000000000010E-002     3.5427230038465041E-009
   3.7300000000000028E-002    -5.2981900117154979E-011
   3.8400000000000017E-002    -4.9652868483462953E-009
   3.9500000000000007E-002    -6.6686549615724289E-009
   4.0600000000000025E-002    -2.2782216113625964E-009
   4.1700000000000015E-002     6.0187437256331577E-009
   4.2800000000000005E-002     1.1182712533752692E-008
   4.3900000000000022E-002     6.9529910717847088E-009
   4.5000000000000012E-002    -5.7220450599970718E-009
   4.6100000000000002E-002    -1.6954208703623408E-008
   4.7200000000000020E-002    -1.4912638235387021E-008
   4.8300000000000010E-002     2.5643238643624500E-009
   4.9400000000000027E-002     2.3068318810715027E-008
   5.0500000000000017E-002     2.7126732859983349E-008
   5.1600000000000007E-002     5.8138804881480155E-009
   5.2700000000000025E-002    -2.7706001048954931E-008
   5.3800000000000014E-002    -4.4264609755373385E-008
   5.4900000000000004E-002    -2.2672720589866913E-008
   5.6000000000000022E-002     2.6897144067561385E-008
   5.7100000000000012E-002     6.4736816796084895E-008
   5.8200000000000002E-002     5.1738592077299472E-008
   5.9300000000000019E-002    -1.2826918194264181E-008
   6.0400000000000009E-002    -8.1804053309042501E-008
   6.1500000000000027E-002    -9.3361173014727683E-008
   6.2600000000000017E-002    -2.3114235858656684E-008
   6.3700000000000007E-002     8.3216903590255242E-008
   6.4800000000000024E-002     1.3824742950419022E-007
   6.5900000000000014E-002     8.2706861803671927E-008
   6.7000000000000004E-002    -5.8315411166631748E-008
   6.8100000000000022E-002    -1.7639440841321630E-007
   6.9200000000000012E-002    -1.5800615926764294E-007
   7.0300000000000029E-002     9.0422442866611163E-009
   7.1400000000000019E-002     1.9875983525707852E-007
   7.2500000000000009E-002     2.4549692057007633E-007
   7.3600000000000027E-002     7.8780551859836123E-008
   7.4700000000000016E-002    -2.0090736541078513E-007
   7.5800000000000006E-002    -3.5061302128269745E-007
   7.6900000000000024E-002    -2.1797460192374274E-007
   7.8000000000000014E-002     1.3845937019141275E-007
   7.9100000000000004E-002     4.2679391754063545E-007
   8.0200000000000021E-002     3.8972072502474475E-007
   8.1300000000000011E-002     5.9678811226149264E-008
   8.2400000000000029E-002    -3.4857851005654084E-007
   8.3500000000000019E-002    -5.7237406281274161E-007
   8.4600000000000009E-002    -3.8610383512605040E-007
   8.5700000000000026E-002     1.4377168611190427E-007
   8.6800000000000016E-002     6.2572331671617576E-007
   8.7900000000000006E-002     7.3784713094937615E-007
   8.9000000000000024E-002     2.2605610183745739E-007
   9.0100000000000013E-002    -5.7508674444761709E-007
   9.1200000000000003E-002    -1.0452833976160036E-006
   9.2300000000000021E-002    -6.5465849274914945E-007
   9.3400000000000011E-002     1.0850693143993340E-007
   9.4500000000000028E-002     1.2731479728245176E-006
   9.5600000000000018E-002     1.7216433434441569E-006
   9.6700000000000008E-002     5.4253467851594905E-007
   9.7800000000000026E-002    -2.0109951037738938E-006
   9.8900000000000016E-002    -2.0543977825582260E-006
  0.10000000000000001         -8.5358783508127090E-007
  0.10110000000000002          1.8229163742944365E-006
  0.10220000000000001          3.9641199691686779E-006
  0.10330000000000003          1.4178239098328049E-006
  0.10440000000000002         -3.2407403978140792E-006
  0.10550000000000001         -6.7129622038919479E-006
  0.10660000000000003         -3.1828699320612941E-006
  0.10770000000000002          5.5555547078256495E-006
  0.10880000000000001          8.6226837083813734E-006
  0.10990000000000003          3.1249996936821844E-006
  0.11100000000000002         -4.0509253267373424E-006
  0.11210000000000001         -5.6712956393312197E-006
  0.11320000000000002         -3.2407403978140792E-006
  0.11430000000000001          6.9444433847820619E-007
  0.11540000000000003          4.3981476665067021E-006
  0.11650000000000002          5.0925918912980705E-006
  0.11760000000000001          1.0416665645607281E-005
  0.11870000000000003         -1.6898145986488089E-005
  0.11980000000000002         -3.1018513254821301E-005
  0.12090000000000001         -6.9444436121557374E-006
  0.12200000000000003          3.3796291972976178E-005
  0.12310000000000001          6.3425919506698847E-005
  0.12420000000000003          1.9907405658159405E-005
  0.12530000000000002         -7.5925912824459374E-005
  0.12640000000000001         -7.0370362664107233E-005
  0.12750000000000003         -3.7962956412229687E-005
  0.12860000000000002          2.1296293198247440E-005
  0.12970000000000001          9.3518508947454393E-005
  0.13080000000000003          8.3333325164858252E-005
  0.13190000000000002          4.0740735130384564E-005
  0.13300000000000001         -6.8518507760018110E-005
  0.13410000000000000         -1.5555553545709699E-004
  0.13520000000000004         -4.2592586396494880E-005
  0.13630000000000003          1.5185182564891875E-004
  0.13740000000000002          1.9629627058748156E-004
  0.13850000000000001          4.4444437662605196E-005
  0.13960000000000000         -2.5370367802679539E-004
  0.14070000000000005         -3.1481476617045701E-004
  0.14180000000000004         -7.7777767728548497E-005
  0.14290000000000003          2.5925922091118991E-004
  0.14400000000000002          4.4444439117796719E-004
  0.14510000000000001          9.9999990197829902E-005
  0.14620000000000000         -1.8148146045859903E-004
  0.14730000000000004         -5.1481474656611681E-004
  0.14840000000000003         -9.9999990197829902E-005
  0.14950000000000002          1.1111109779449180E-004
  0.15060000000000001          3.5185180604457855E-004
  0.15170000000000000          2.1481479052454233E-004
  0.15280000000000005         -4.8148140194825828E-005
  0.15390000000000004         -3.5185180604457855E-004
  0.15500000000000003         -3.3333330065943301E-005
  0.15610000000000002          2.7037033578380942E-004
  0.15720000000000001          3.4074069117195904E-004
  0.15830000000000000         -7.4074065196327865E-005
  0.15940000000000004         -6.4814806682989001E-004
  0.16050000000000003         -6.7962956381961703E-004
  0.16160000000000002          2.6666664052754641E-004
  0.16270000000000001          6.9259252632036805E-004
  0.16380000000000000          7.5462955283001065E-004
  0.16490000000000005         -4.2407400906085968E-004
  0.16600000000000004         -1.3043979415670037E-003
  0.16710000000000003         -6.2453694408759475E-004
  0.16820000000000002          1.1935184011235833E-003
  0.16930000000000001          1.8574071582406759E-003
  0.17040000000000000          7.8518508234992623E-004
  0.17150000000000004         -6.7037029657512903E-004
  0.17260000000000003         -1.6259257681667805E-003
  0.17370000000000002         -1.2259257491677999E-003
  0.17480000000000001          6.5185176208615303E-004
  0.17590000000000000          1.5555553836748004E-003
  0.17700000000000005          2.4444441078230739E-004
  0.17810000000000004         -1.2814813526347280E-003
  0.17920000000000003         -1.6888886457309127E-003
  0.18030000000000002         -5.4814806208014488E-004
  0.18140000000000001          8.7407394312322140E-004
  0.18250000000000000          1.4740738552063704E-003
  0.18360000000000004          1.0074073215946555E-003
  0.18470000000000003         -1.4814813039265573E-004
  0.18580000000000002         -5.7777768233790994E-004
  0.18690000000000001         -1.4814813039265573E-004
  0.18800000000000000          4.5925920130684972E-004
  0.18910000000000005          2.0740738546010107E-004
  0.19020000000000004         -5.7777768233790994E-004
  0.19130000000000003         -9.9259242415428162E-004
  0.19240000000000002         -9.1851840261369944E-004
  0.19350000000000001          4.1481477092020214E-004
  0.19460000000000005          1.1703702621161938E-003
  0.19570000000000004          1.2592590646818280E-003
  0.19680000000000003         -1.3333332026377320E-004
  0.19790000000000002         -1.0962961241602898E-003
  0.19900000000000001         -6.2962953234091401E-004
  0.20010000000000000          3.2592588104307652E-004
  0.20120000000000005          1.0962961241602898E-003
  0.20230000000000004          8.9629617286846042E-004
  0.20340000000000003         -5.2962958579882979E-004
  0.20450000000000002         -1.3185183051973581E-003
  0.20560000000000000         -1.5481479931622744E-003
  0.20670000000000005         -7.1296287933364511E-004
  0.20780000000000004          1.0740739526227117E-003
  0.20890000000000003          1.9594905897974968E-003
