 -0.12000000000000000          0.0000000000000000
 -0.11889999999999999          0.0000000000000000
 -0.11780000000000000          0.0000000000000000
 -0.11670000000000000          0.0000000000000000
 -0.11559999999999999          0.0000000000000000
 -0.11449999999999999          0.0000000000000000
 -0.11340000000000000          0.0000000000000000
 -0.11230000000000000          0.0000000000000000
 -0.11119999999999999         -2.6096256857362257E-028
 -0.11009999999999999          2.5704086965023976E-027
 -0.10900000000000000         -1.3982931788782085E-025
 -0.10790000000000000         -6.9149111343629025E-025
 -0.10679999999999999          4.0020612237998483E-025
 -0.10569999999999999          3.9337259013660453E-024
 -0.10460000000000000         -2.9521759381695766E-023
 -0.10349999999999999         -1.7227466303465786E-022
 -0.10239999999999999         -1.1213164256334377E-022
 -0.10130000000000000          1.4152530166253995E-021
 -0.10020000000000000          4.2986326729296903E-021
  -9.9099999999999994E-002    -8.3329858859358940E-022
  -9.7999999999999990E-002    -3.1703167160386628E-020
  -9.6899999999999986E-002    -6.7426890924526996E-020
  -9.5799999999999996E-002     3.0819657486823300E-020
  -9.4699999999999993E-002     4.3092622830742948E-019
  -9.3599999999999989E-002     8.0138074584992217E-019
  -9.2499999999999999E-002    -2.6225792340266713E-019
  -9.1399999999999995E-002    -4.1026934155323594E-018
  -9.0299999999999991E-002    -7.6937317816282059E-018
  -8.9200000000000002E-002    -5.4610392954916996E-020
  -8.8099999999999984E-002     2.8888508652361142E-017
  -8.6999999999999994E-002     6.0052789693202676E-017
  -8.5899999999999990E-002     2.3466730166325171E-017
  -8.4799999999999986E-002    -1.5135146014031402E-016
  -8.3699999999999997E-002    -3.7910235397743013E-016
  -8.2599999999999993E-002    -2.8937247457541746E-016
  -8.1499999999999989E-002     5.5584694866903182E-016
  -8.0399999999999999E-002     1.9200934601098585E-015
  -7.9299999999999995E-002     2.1747412102076551E-015
  -7.8199999999999992E-002    -1.0137053143514235E-015
  -7.7100000000000002E-002    -7.6585407191910072E-015
  -7.5999999999999984E-002    -1.1916456760425759E-014
  -7.4899999999999994E-002    -3.3122158258448242E-015
  -7.3799999999999991E-002     2.2794979676076833E-014
  -7.2699999999999987E-002     5.0139874755361288E-014
  -7.1599999999999997E-002     3.9533392564346931E-014
  -7.0499999999999993E-002    -4.1239523596156222E-014
  -6.9399999999999989E-002    -1.6258941079334149E-013
  -6.8300000000000000E-002    -2.0438320903325841E-013
  -6.7199999999999996E-002    -2.1829341787416197E-014
  -6.6099999999999992E-002     3.8620492979861420E-013
  -6.5000000000000002E-002     7.2984858174446332E-013
  -6.3899999999999985E-002     5.1537561111120178E-013
  -6.2799999999999995E-002    -5.2758199284991258E-013
  -6.1699999999999991E-002    -1.9120746652667719E-012
  -6.0599999999999994E-002    -2.3188703561494162E-012
  -5.9499999999999990E-002    -4.5110741314288716E-013
  -5.8399999999999994E-002     3.4517937553407707E-012
  -5.7299999999999990E-002     6.6929734324205903E-012
  -5.6199999999999986E-002     5.2771884084812370E-012
  -5.5099999999999996E-002    -2.6700206715718489E-012
  -5.3999999999999992E-002    -1.3439364204836934E-011
  -5.2899999999999989E-002    -1.7943686467236653E-011
  -5.1799999999999985E-002    -7.6835248233320108E-012
  -5.0699999999999995E-002     1.6281923725935954E-011
  -4.9599999999999991E-002     3.8841121291488534E-011
  -4.8499999999999988E-002     3.7843419370409137E-011
  -4.7399999999999998E-002     1.7318631338053558E-012
  -4.6299999999999994E-002    -5.4138596383701554E-011
  -4.5199999999999990E-002    -8.8930300623513148E-011
  -4.4099999999999986E-002    -6.2314896298598654E-011
  -4.2999999999999997E-002     2.8690693917865495E-011
  -4.1899999999999993E-002     1.3180335989293468E-010
  -4.0799999999999989E-002     1.6442536221461523E-010
  -3.9699999999999985E-002     7.4820649675899631E-011
  -3.8599999999999995E-002    -1.0275230666323409E-010
  -3.7499999999999992E-002    -2.5016949622980178E-010
  -3.6399999999999988E-002    -2.4097354667240722E-010
  -3.5299999999999984E-002    -4.4616838001942938E-011
  -3.4199999999999994E-002     2.2384928632934731E-010
  -3.3099999999999991E-002     3.6638977962688557E-010
  -3.1999999999999987E-002     2.5026888894608135E-010
  -3.0899999999999997E-002    -6.7191120722842612E-011
  -2.9799999999999993E-002    -3.5204644754927017E-010
  -2.8699999999999989E-002    -3.6404212977458883E-010
  -2.7599999999999986E-002    -6.6792890662803472E-011
  -2.6499999999999996E-002     3.0161198538714018E-010
  -2.5399999999999992E-002     3.9250852568173400E-010
  -2.4299999999999988E-002     5.0090997322227437E-011
  -2.3199999999999985E-002    -4.8970655308622213E-010
  -2.2099999999999995E-002    -7.1391359490746709E-010
  -2.0999999999999991E-002    -2.3877735899624497E-010
  -1.9899999999999987E-002     7.8216028098765378E-010
  -1.8799999999999983E-002     1.6146455283916339E-009
  -1.7699999999999994E-002     1.4058738617706013E-009
  -1.6599999999999990E-002    -1.0886543055921294E-010
  -1.5499999999999986E-002    -2.1906134684002154E-009
  -1.4399999999999996E-002    -3.3950795508275178E-009
  -1.3299999999999992E-002    -2.5196853492559512E-009
  -1.2199999999999989E-002     4.0454595229277857E-010
  -1.1099999999999985E-002     3.8421812398325983E-009
  -9.9999999999999950E-003     5.5558397882293775E-009
  -8.8999999999999913E-003     4.0724184025009436E-009
  -7.7999999999999875E-003    -1.6560600113457724E-010
  -6.6999999999999837E-003    -4.8484989356722963E-009
  -5.5999999999999939E-003    -7.1559385084185578E-009
  -4.4999999999999901E-003    -5.5818651922834306E-009
  -3.3999999999999864E-003    -9.7027308409991520E-010
  -2.2999999999999826E-003     4.0089820352307015E-009
  -1.1999999999999927E-003     6.6167595846877703E-009
  -9.9999999999988987E-005     5.7906799355578187E-009
   1.0000000000000148E-003     2.6267659158918377E-009
   2.1000000000000185E-003    -7.0001460183988229E-010
   3.2000000000000084E-003    -2.6556727927840029E-009
   4.3000000000000121E-003    -3.2850389075633757E-009
   5.4000000000000159E-003    -3.6196856623149642E-009
   6.5000000000000058E-003    -4.1650061177733733E-009
   7.6000000000000234E-003    -3.9800762685615609E-009
   8.7000000000000133E-003    -1.4477202769924702E-009
   9.8000000000000032E-003     3.7060650104336901E-009
   1.0900000000000021E-002     8.9935090485937508E-009
   1.2000000000000011E-002     1.0121675053653689E-008
   1.3100000000000001E-002     4.2790140319937109E-009
   1.4200000000000018E-002    -6.5728147369270573E-009
   1.5300000000000008E-002    -1.5478931914003624E-008
   1.6400000000000026E-002    -1.4580289864341012E-008
   1.7500000000000016E-002    -1.3097213313884026E-009
   1.8600000000000005E-002     1.7927128226347122E-008
   1.9700000000000023E-002     3.0288052954574596E-008
   2.0800000000000013E-002     2.4713328272696344E-008
   2.1900000000000003E-002     5.6232019041146941E-010
   2.3000000000000020E-002    -3.0016256147291642E-008
   2.4100000000000010E-002    -4.8951989128909190E-008
   2.5200000000000000E-002    -4.4524703923798370E-008
   2.6300000000000018E-002    -2.0244227627586042E-008
   2.7400000000000008E-002     7.2331882705611861E-009
   2.8500000000000025E-002     2.1162341212743740E-008
   2.9600000000000015E-002     1.9759362146487547E-008
   3.0700000000000005E-002     2.0774448827864944E-008
   3.1800000000000023E-002     4.8969990729119672E-008
   3.2900000000000013E-002     1.1230090990466124E-007
   3.4000000000000002E-002     1.8320493211376743E-007
   3.5100000000000020E-002     2.0175350812223769E-007
   3.6200000000000010E-002     1.0529614513643537E-007
   3.7300000000000028E-002    -1.2869240606505628E-007
   3.8400000000000017E-002    -4.5172313889452198E-007
   3.9500000000000007E-002    -7.4719184794957982E-007
   4.0600000000000025E-002    -8.7079746435847483E-007
   4.1700000000000015E-002    -7.1004654955686419E-007
   4.2800000000000005E-002    -2.3256114900505054E-007
   4.3900000000000022E-002     5.0033600018650759E-007
   4.5000000000000012E-002     1.3568700296673342E-006
   4.6100000000000002E-002     2.1750188352598343E-006
   4.7200000000000020E-002     2.7920327738684136E-006
   4.8300000000000010E-002     3.0472579055640381E-006
   4.9400000000000027E-002     2.7648441118799383E-006
   5.0500000000000017E-002     1.7401061995769851E-006
   5.1600000000000007E-002    -2.4778159968263935E-007
   5.2700000000000025E-002    -3.3934036309801741E-006
   5.3800000000000014E-002    -7.8140055848052725E-006
   5.4900000000000004E-002    -1.3522614608518779E-005
   5.6000000000000022E-002    -2.0448749637580477E-005
   5.7100000000000012E-002    -2.8504662623163313E-005
   5.8200000000000002E-002    -3.7670590245397761E-005
   5.9300000000000019E-002    -4.8065150622278452E-005
   6.0400000000000009E-002    -5.9981095546390861E-005
   6.1500000000000027E-002    -7.3891722422558814E-005
   6.2600000000000017E-002    -9.0451365394983441E-005
   6.3700000000000007E-002    -1.1051206092815846E-004
   6.4800000000000024E-002    -1.3515919272322208E-004
   6.5900000000000014E-002    -1.6574616893194616E-004
   6.7000000000000004E-002    -2.0389916608110070E-004
   6.8100000000000022E-002    -2.5147621636278927E-004
   6.9200000000000012E-002    -3.1049450626596808E-004
   7.0300000000000029E-002    -3.8306761416606605E-004
   7.1400000000000019E-002    -4.7140513197518885E-004
   7.2500000000000009E-002    -5.7791091967374086E-004
   7.3600000000000027E-002    -7.0538063300773501E-004
   7.4700000000000016E-002    -8.5725955432280898E-004
   7.5800000000000006E-002    -1.0378939332440495E-003
   7.6900000000000024E-002    -1.2527053477242589E-003
   7.8000000000000014E-002    -1.5082389581948519E-003
   7.9100000000000004E-002    -1.8120821332558990E-003
   8.0200000000000021E-002    -2.1726996637880802E-003
   8.1300000000000011E-002    -2.5992700830101967E-003
   8.2400000000000029E-002    -3.1016205903142691E-003
   8.3500000000000019E-002    -3.6903258878737688E-003
   8.4600000000000009E-002    -4.3769725598394871E-003
   8.5700000000000026E-002    -5.1745208911597729E-003
   8.6800000000000016E-002    -6.0976445674896240E-003
   8.7900000000000006E-002    -7.1629299782216549E-003
   8.9000000000000024E-002    -8.3888843655586243E-003
   9.0100000000000013E-002    -9.7957765683531761E-003
   9.1200000000000003E-002    -1.1405403725802898E-002
   9.2300000000000021E-002    -1.3240874744951725E-002
   9.3400000000000011E-002    -1.5326471067965031E-002
   9.4500000000000028E-002    -1.7687557265162468E-002
   9.5600000000000018E-002    -2.0350452512502670E-002
   9.6700000000000008E-002    -2.3342208936810493E-002
   9.7800000000000026E-002    -2.6690265163779259E-002
   9.8900000000000016E-002    -3.0422020703554153E-002
  0.10000000000000001         -3.4564401954412460E-002
  0.10110000000000002         -3.9143461734056473E-002
  0.10220000000000001         -4.4183954596519470E-002
  0.10330000000000003         -4.9708798527717590E-002
  0.10440000000000002         -5.5738307535648346E-002
  0.10550000000000001         -6.2289208173751831E-002
  0.10660000000000003         -6.9373510777950287E-002
  0.10770000000000002         -7.6997309923171997E-002
  0.10880000000000001         -8.5159718990325928E-002
  0.10990000000000003         -9.3851894140243530E-002
  0.11100000000000002        -0.10305605828762054
  0.11210000000000001        -0.11274448037147522
  0.11320000000000002        -0.12287837266921997
  0.11430000000000001        -0.13340669870376587
  0.11540000000000003        -0.14426505565643311
  0.11650000000000002        -0.15537488460540771
  0.11760000000000001        -0.16664284467697144
  0.11870000000000003        -0.17796055972576141
  0.11980000000000002        -0.18920452892780304
  0.12090000000000001        -0.20023594796657562
  0.12200000000000003        -0.21090075373649597
  0.12310000000000001        -0.22102996706962585
  0.12420000000000003        -0.23044040799140930
  0.12530000000000002        -0.23893597722053528
  0.12640000000000001        -0.24630948901176453
  0.12750000000000003        -0.25234502553939819
  0.12860000000000002        -0.25682076811790466
  0.12970000000000001        -0.25951185822486877
  0.13080000000000003        -0.26019358634948730
  0.13190000000000002        -0.25864496827125549
  0.13300000000000001        -0.25465267896652222
  0.13410000000000000        -0.24801522493362427
  0.13520000000000004        -0.23854754865169525
  0.13630000000000003        -0.22608591616153717
  0.13740000000000002        -0.21049256622791290
  0.13850000000000001        -0.19166025519371033
  0.13960000000000000        -0.16951663792133331
  0.14070000000000005        -0.14402833580970764
  0.14180000000000004        -0.11520493775606155
  0.14290000000000003         -8.3102434873580933E-002
  0.14400000000000002         -4.7826152294874191E-002
  0.14510000000000001         -9.5329396426677704E-003
  0.14620000000000000          3.1567629426717758E-002
  0.14730000000000004          7.5212717056274414E-002
  0.14840000000000003         0.12108673900365829
  0.14950000000000002         0.16882303357124329
  0.15060000000000001         0.21800671517848969
  0.15170000000000000         0.26817831397056580
  0.15280000000000005         0.31883859634399414
  0.15390000000000004         0.36945423483848572
  0.15500000000000003         0.41946446895599365
  0.15610000000000002         0.46828860044479370
  0.15720000000000001         0.51533401012420654
  0.15830000000000000         0.56000500917434692
  0.15940000000000004         0.60171210765838623
  0.16050000000000003         0.63988149166107178
  0.16160000000000002         0.67396479845046997
  0.16270000000000001         0.70344877243041992
  0.16380000000000000         0.72786462306976318
  0.16490000000000005         0.74679690599441528
  0.16600000000000004         0.75989180803298950
  0.16710000000000003         0.76686406135559082
  0.16820000000000002         0.76750296354293823
  0.16930000000000001         0.76167738437652588
  0.17040000000000000         0.74933922290802002
  0.17150000000000004         0.73052579164505005
  0.17260000000000003         0.70536047220230103
  0.17370000000000002         0.67405158281326294
  0.17480000000000001         0.63689017295837402
  0.17590000000000000         0.59424614906311035
  0.17700000000000005         0.54656285047531128
  0.17810000000000004         0.49435064196586609
  0.17920000000000003         0.43817892670631409
  0.18030000000000002         0.37866669893264771
  0.18140000000000001         0.31647267937660217
  0.18250000000000000         0.25228488445281982
  0.18360000000000004         0.18680980801582336
  0.18470000000000003         0.12076164036989212
  0.18580000000000002          5.4850973188877106E-002
  0.18690000000000001         -1.0226012207567692E-002
  0.18800000000000000         -7.3797941207885742E-002
  0.18910000000000005        -0.13522808253765106
  0.19020000000000004        -0.19392307102680206
  0.19130000000000003        -0.24934093654155731
  0.19240000000000002        -0.30099812150001526
  0.19350000000000001        -0.34847533702850342
  0.19460000000000005        -0.39142185449600220
  0.19570000000000004        -0.42955857515335083
  0.19680000000000003        -0.46267977356910706
  0.19790000000000002        -0.49065333604812622
  0.19900000000000001        -0.51341950893402100
  0.20010000000000000        -0.53098887205123901
  0.20120000000000005        -0.54343920946121216
  0.20230000000000004        -0.55091130733489990
  0.20340000000000003        -0.55360388755798340
  0.20450000000000002        -0.55176812410354614
  0.20560000000000000        -0.54570120573043823
  0.20670000000000005        -0.53573960065841675
  0.20780000000000004        -0.52225232124328613
  0.20890000000000003        -0.50563400983810425
