 -0.12000000000000000          0.0000000000000000
 -0.11889999999999999          0.0000000000000000
 -0.11780000000000000          0.0000000000000000
 -0.11670000000000000          0.0000000000000000
 -0.11559999999999999          0.0000000000000000
 -0.11449999999999999          0.0000000000000000
 -0.11340000000000000          0.0000000000000000
 -0.11230000000000000          0.0000000000000000
 -0.11119999999999999          0.0000000000000000
 -0.11009999999999999          1.4004627264720820E-013
 -0.10900000000000000          2.8009254529441641E-013
 -0.10790000000000000          4.2013883149415177E-013
 -0.10679999999999999          2.8009257239947072E-013
 -0.10569999999999999          1.4004629975226252E-013
 -0.10460000000000000         -5.6018503637872419E-013
 -0.10349999999999999         -7.0023126836835092E-013
 -0.10239999999999999         -8.4027750035797766E-013
 -0.10130000000000000          1.4004643527753408E-013
 -0.10020000000000000          1.1203703980181001E-012
  -9.9099999999999994E-002     9.8032422023858201E-013
  -9.7999999999999990E-002    -1.4004623198962673E-012
  -9.6899999999999986E-002    -1.5405084976757855E-012
  -9.5799999999999996E-002     5.6018584953035355E-013
  -9.4699999999999993E-002     2.6608801967364926E-012
  -9.3599999999999989E-002     2.8009390054713201E-013
  -9.2499999999999999E-002    -6.5821731745629997E-012
  -9.1399999999999995E-002     1.2755695800190348E-018
  -9.0299999999999991E-002     1.5545136358707801E-011
  -8.9200000000000002E-002     2.2127310400632538E-011
  -8.8099999999999984E-002    -7.1423609214471551E-012
  -8.6999999999999994E-002    -9.5231496299863494E-012
  -8.5899999999999990E-002     6.0219854276788443E-012
  -8.4799999999999986E-002     2.1567119617982300E-011
  -8.3699999999999997E-002     1.9186333077847451E-011
  -8.2599999999999993E-002     1.6805544802989125E-011
  -8.1499999999999989E-002     1.4424756528130800E-011
  -8.0399999999999999E-002     4.7895812316234299E-011
  -7.9299999999999995E-002     8.1366871573784749E-011
  -7.8199999999999992E-002     1.1483793083133520E-010
  -7.7100000000000002E-002     1.8416083935601790E-010
  -7.5999999999999984E-002     2.1763189861356835E-010
  -7.4899999999999994E-002     1.7939925933685430E-010
  -7.3799999999999991E-002     1.4116662006014025E-010
  -7.2699999999999987E-002     1.0293398078342619E-010
  -7.1599999999999997E-002    -7.8706041684029060E-011
  -7.0499999999999993E-002    -1.8864236561721981E-010
  -6.9399999999999989E-002    -1.5517132023745717E-010
  -6.8300000000000000E-002     2.1707117006664056E-011
  -6.7199999999999996E-002     1.9858555078133833E-010
  -6.6099999999999992E-002     8.8649212970359770E-011
  -6.5000000000000002E-002    -1.6469450803135999E-010
  -6.3899999999999985E-002    -2.7463084584233854E-010
  -6.2799999999999995E-002    -3.8456718365331710E-010
  -6.1699999999999991E-002    -4.9450354921987127E-010
  -6.0599999999999994E-002    -3.0810357737331984E-011
  -5.9499999999999990E-002     1.4606808818040662E-010
  -5.8399999999999994E-002    -2.5068300213426653E-010
  -5.7299999999999990E-002    -3.6061933994524509E-010
  -5.6199999999999986E-002    -7.5737044413770604E-010
  -5.5099999999999996E-002    -5.8049204332277782E-010
  -5.3999999999999992E-002    -4.0361361475227397E-010
  -5.2899999999999989E-002     3.4689434658119467E-010
  -5.1799999999999985E-002     2.8182907119145284E-009
  -5.0699999999999995E-002     3.5687985899812702E-009
  -4.9599999999999991E-002     3.1720475135443849E-009
  -4.8499999999999988E-002     1.6280373715815699E-009
  -4.7399999999999998E-002    -4.8960235865536106E-010
  -4.6299999999999994E-002    -1.4599829123440600E-009
  -4.5199999999999990E-002    -7.0947492325501571E-010
  -4.4099999999999986E-002     6.1466259859699335E-010
  -4.2999999999999997E-002     7.9154099941192158E-010
  -4.1899999999999993E-002     9.6841945573800103E-010
  -4.0799999999999989E-002     1.1452978565529293E-009
  -3.9699999999999985E-002     7.4854672460489269E-010
  -3.8599999999999995E-002     9.2542506990866968E-010
  -3.7499999999999992E-002     2.2495625362495275E-009
  -3.6399999999999988E-002     4.1473291467752915E-009
  -3.5299999999999984E-002     4.8978368027974284E-009
  -3.4199999999999994E-002     2.7801969615381950E-009
  -3.3099999999999991E-002     8.8927455677012546E-011
  -3.1999999999999987E-002    -2.6023421195731089E-009
  -3.0899999999999997E-002    -4.1463525946028312E-009
  -2.9799999999999993E-002    -2.8222157943957882E-009
  -2.8699999999999989E-002     7.9643946993002146E-010
  -2.7599999999999986E-002     1.5469469039075534E-009
  -2.6499999999999996E-002     2.9362246141417803E-012
  -2.5399999999999992E-002    -6.8063016334107829E-010
  -2.4299999999999988E-002    -3.0850848542485210E-009
  -2.3199999999999985E-002    -5.3461328697324006E-009
  -2.2099999999999995E-002    -4.5239216817094530E-009
  -2.0999999999999991E-002     9.8585237195969455E-011
  -1.9899999999999987E-002     1.7095374005293706E-009
  -1.8799999999999983E-002    -1.8421764114151529E-009
  -1.7699999999999994E-002    -6.8279644160895714E-009
  -1.6599999999999990E-002    -4.3565684393342963E-009
  -1.5499999999999986E-002     3.2774938318880231E-009
  -1.4399999999999996E-002     8.6170377500138784E-009
  -1.3299999999999992E-002     9.3675458501252251E-009
  -1.2199999999999989E-002     4.3817585115846214E-009
  -1.1099999999999985E-002    -6.0402904900058729E-010
  -9.9999999999999950E-003     4.7355155352590828E-009
  -8.8999999999999913E-003     1.1222319074022380E-008
  -7.7999999999999875E-003     1.3120086350681959E-008
  -6.6999999999999837E-003     3.5452634161714514E-009
  -5.5999999999999939E-003    -1.2913114133539239E-008
  -4.4999999999999901E-003    -2.2487938622361980E-008
  -3.3999999999999864E-003    -1.4853876351139661E-008
  -2.2999999999999826E-003     1.9582586663347001E-009
  -1.1999999999999927E-003     1.4181356533526923E-008
  -9.9999999999988987E-005     1.0342828815623761E-008
   1.0000000000000148E-003    -4.9682915559401408E-009
   2.1000000000000185E-003    -1.3395858644571490E-008
   3.2000000000000084E-003    -1.1727613324907793E-009
   4.3000000000000121E-003     1.5639372463738255E-008
   5.4000000000000159E-003     1.4095360434396298E-008
   6.5000000000000058E-003    -4.6575370227230906E-009
   7.6000000000000234E-003    -1.9968657838376203E-008
   8.7000000000000133E-003    -1.9218150626443276E-008
   9.8000000000000032E-003    -5.8477938047474254E-009
   1.0900000000000021E-002     8.6698221934966568E-009
   1.2000000000000011E-002     4.8312935874150753E-009
   1.3100000000000001E-002    -8.1853084310523627E-009
   1.4200000000000018E-002    -1.3171096213682176E-008
   1.5300000000000008E-002    -3.2425171436756273E-009
   1.6400000000000026E-002     1.5290504862264243E-008
   1.7500000000000016E-002     2.1777305292403071E-008
   1.8600000000000005E-002     5.3189253002017267E-009
   1.9700000000000023E-002    -1.8596638895473916E-008
   2.0800000000000013E-002    -2.6450575063563520E-008
   2.1900000000000003E-002    -1.0212071188675509E-008
   2.3000000000000020E-002     1.3232654971773172E-008
   2.4100000000000010E-002     2.2623455109282986E-008
   2.5200000000000000E-002     1.3944926990916429E-008
   2.6300000000000018E-002    -5.0589341604734273E-009
   2.7400000000000008E-002    -1.9186945365845531E-008
   2.8500000000000025E-002    -1.7826957687816503E-008
   2.9600000000000015E-002    -4.4207499882986667E-009
   3.0700000000000005E-002     1.5282738408117780E-009
   3.1800000000000023E-002    -6.8634404826184436E-009
   3.2900000000000013E-002    -2.3285968708819382E-008
   3.4000000000000002E-002    -2.7088645992989768E-008
   3.5100000000000020E-002    -1.3108808261108607E-008
   3.6200000000000010E-002     1.0049101994979992E-008
   3.7300000000000028E-002     2.1734422261943109E-008
   3.8400000000000017E-002     1.2769076462859630E-008
   3.9500000000000007E-002    -7.0952297370752149E-009
   4.0600000000000025E-002    -2.1796870086632225E-008
   4.1700000000000015E-002    -2.1584142473329848E-008
   4.2800000000000005E-002    -7.6043065178055258E-009
   4.3900000000000022E-002     2.3601232079784040E-009
   4.5000000000000012E-002    -2.9529637068925751E-010
   4.6100000000000002E-002    -1.0407900319364671E-008
   4.7200000000000020E-002    -1.3636951123885410E-008
   4.8300000000000010E-002    -1.9516332994129471E-009
   4.9400000000000027E-002     1.7190870948979864E-008
   5.0500000000000017E-002     2.8876188551407722E-008
   5.1600000000000007E-002     2.3926251202510684E-008
   5.2700000000000025E-002     6.9300911675895804E-009
   5.3800000000000014E-002    -6.6242913376868273E-009
   5.4900000000000004E-002    -6.4115646125628700E-009
   5.6000000000000022E-002     4.1264947014951758E-009
   5.7100000000000012E-002     1.2083220646275095E-008
   5.8200000000000002E-002     1.0288244922662670E-008
   5.9300000000000019E-002     1.6097136956716440E-009
   6.0400000000000009E-002    -5.0611137503153714E-009
   6.1500000000000027E-002    -5.4220166134655301E-009
   6.2600000000000017E-002    -1.1938829924673655E-009
   6.3700000000000007E-002     2.1738062461196250E-009
   6.4800000000000024E-002     1.5260885888324083E-009
   6.5900000000000014E-002    -1.8463696127568596E-009
   6.7000000000000004E-002    -3.7847538436608374E-009
   6.8100000000000022E-002    -3.1418052603982005E-009
   6.9200000000000012E-002    -2.9290787573188481E-009
   7.0300000000000029E-002    -5.4410929095638494E-009
   7.1400000000000019E-002    -8.9569587302662512E-009
   7.2500000000000009E-002    -8.8876399573223352E-009
   7.3600000000000027E-002    -3.0103219916810531E-009
   7.4700000000000016E-002     4.5161807626925565E-009
   7.5800000000000006E-002     7.3102395248270113E-009
   7.6900000000000024E-002     3.6509659739891731E-009
   7.8000000000000014E-002    -4.3852943498734476E-010
   7.9100000000000004E-002    -2.2580326497489978E-010
   8.0200000000000021E-002     5.3288480295066165E-009
   8.1300000000000011E-002     1.2066609933469863E-008
   8.2400000000000029E-002     1.3175632140871585E-008
   8.3500000000000019E-002     6.0028786386112643E-009
   8.4600000000000009E-002    -4.6475041592941579E-009
   8.5700000000000026E-002    -1.1156998880323954E-008
   8.6800000000000016E-002    -8.3270883521890937E-009
   8.7900000000000006E-002     2.9638578258328607E-009
   8.9000000000000024E-002     1.5536507191882265E-008
   9.0100000000000013E-002     2.1960564922096637E-008
   9.1200000000000003E-002     1.9457512934195620E-008
   9.2300000000000021E-002     1.1245054665209864E-008
   9.3400000000000011E-002     4.7265960034792442E-009
   9.4500000000000028E-002     3.1332849648180172E-009
   9.5600000000000018E-002     4.2781587161755397E-009
   9.6700000000000008E-002     3.6752554333219223E-009
   9.7800000000000026E-002    -1.0013139206677124E-009
   9.8900000000000016E-002    -7.7662534181399678E-009
  0.10000000000000001         -1.1777323116746174E-008
  0.10110000000000002         -9.4583008092286036E-009
  0.10220000000000001         -1.9306780618677521E-009
  0.10330000000000003          5.2171396092148825E-009
  0.10440000000000002          7.3815509260555245E-009
  0.10550000000000001          4.3110319758454807E-009
  0.10660000000000003         -4.0475023332930959E-010
  0.10770000000000002         -2.3392134895772188E-009
  0.10880000000000001          5.5035742629883089E-010
  0.10990000000000003          6.2526179789301750E-009
  0.11100000000000002          1.0451622678431249E-008
  0.11210000000000001          9.5588239545918441E-009
  0.11320000000000002          3.5154037458795528E-009
  0.11430000000000001         -4.4909049812247304E-009
  0.11540000000000003         -9.7350811856244945E-009
  0.11650000000000002         -8.9951504023133566E-009
  0.11760000000000001         -2.7714972539172322E-009
  0.11870000000000003          5.1528079580975827E-009
  0.11980000000000002          1.0545286421859146E-008
  0.12090000000000001          1.1387941256657541E-008
  0.12200000000000003          9.2965217746154849E-009
  0.12310000000000001          7.5771176000216656E-009
  0.12420000000000003          8.2887758878769091E-009
  0.12530000000000002          9.9524344321366698E-009
  0.12640000000000001          9.0494296500764904E-009
  0.12750000000000003          3.5649687646355233E-009
  0.12860000000000002         -3.6810470227521819E-009
  0.12970000000000001         -5.8687144033342520E-009
  0.13080000000000003          1.9647696802849168E-009
  0.13190000000000002          1.7441122324157732E-008
  0.13300000000000001          3.1002482359099304E-008
  0.13410000000000000          3.2507905700640549E-008
  0.13520000000000004          1.9673237261486065E-008
  0.13630000000000003          4.9396464696371822E-010
  0.13740000000000002         -1.2980493124814529E-008
  0.13850000000000001         -1.4703492645651295E-008
  0.13960000000000000         -9.3898000486092315E-009
  0.14070000000000005         -7.0350130165763858E-009
  0.14180000000000004         -1.2706243168736364E-008
  0.14290000000000003         -2.1056830945553884E-008
  0.14400000000000002         -2.1530620841758719E-008
  0.14510000000000001         -8.9627310018158823E-009
  0.14620000000000000          1.0169109110336194E-008
  0.14730000000000004          2.2625101792073110E-008
  0.14840000000000003          2.0055544780461787E-008
  0.14950000000000002          6.1445000199000788E-009
  0.15060000000000001         -7.0943748653462535E-009
  0.15170000000000000         -1.0769025671208965E-008
  0.15280000000000005         -6.3538903027904325E-009
  0.15390000000000004         -2.6079349790819606E-009
  0.15500000000000003         -5.2809085993033023E-009
  0.15610000000000002         -1.0825198515362899E-008
  0.15720000000000001         -1.0410672324212555E-008
  0.15830000000000000         -1.1576768710330754E-010
  0.15940000000000004          1.3745092175554419E-008
  0.16050000000000003          2.0566080394246455E-008
  0.16160000000000002          1.5776084438812177E-008
  0.16270000000000001          5.0067963108801905E-009
  0.16380000000000000         -2.0924744159600550E-009
  0.16490000000000005         -2.0013670720686605E-009
  0.16600000000000004         -3.0159183483924323E-010
  0.16710000000000003         -4.3502081936708237E-009
  0.16820000000000002         -1.3698999268285661E-008
  0.16930000000000001         -1.9120481198342532E-008
  0.17040000000000000         -1.2268048799057851E-008
  0.17150000000000004          4.0716567895060507E-009
  0.17260000000000003          1.7090705739519763E-008
  0.17370000000000002          1.6132430502580064E-008
  0.17480000000000001          3.8707881344635098E-009
  0.17590000000000000         -5.8853721895957278E-009
  0.17700000000000005         -2.1678800976587809E-009
  0.17810000000000004          1.1358396889704636E-008
  0.17920000000000003          1.9351013236246217E-008
  0.18030000000000002          1.0542175132854936E-008
  0.18140000000000001         -9.8434096429400597E-009
  0.18250000000000000         -2.4265839115855670E-008
  0.18360000000000004         -1.9897134606594591E-008
  0.18470000000000003         -1.5117174179124504E-009
  0.18580000000000002          1.3133565346379328E-008
  0.18690000000000001          1.1081322526251824E-008
  0.18800000000000000         -3.0334033063184052E-009
  0.18910000000000005         -1.2336962562642384E-008
  0.19020000000000004         -5.6432192252486857E-009
  0.19130000000000003          1.0487934076763850E-008
  0.19240000000000002          1.8212821473184704E-008
  0.19350000000000001          6.8418777310341738E-009
  0.19460000000000005         -1.5680834408726696E-008
  0.19570000000000004         -3.0328678235491680E-008
  0.19680000000000003         -2.5706594186658549E-008
  0.19790000000000002         -8.5782199121808844E-009
  0.19900000000000001          4.2743226735808548E-009
  0.20010000000000000          3.7131278052271455E-009
  0.20120000000000005         -3.1771085762244411E-009
  0.20230000000000004         -2.4677426768704436E-009
  0.20340000000000003          9.9099022321524899E-009
  0.20450000000000002          2.2513102493348924E-008
  0.20560000000000000          2.0247659548999764E-008
  0.20670000000000005          1.0596467037160551E-009
  0.20780000000000004         -2.0623650343054578E-008
  0.20890000000000003         -2.7815868719471837E-008
