 -0.12000000000000000          0.0000000000000000
 -0.11889999999999999          0.0000000000000000
 -0.11780000000000000          0.0000000000000000
 -0.11670000000000000          0.0000000000000000
 -0.11559999999999999          0.0000000000000000
 -0.11449999999999999          0.0000000000000000
 -0.11340000000000000          0.0000000000000000
 -0.11230000000000000          0.0000000000000000
 -0.11119999999999999          0.0000000000000000
 -0.11009999999999999          0.0000000000000000
 -0.10900000000000000          0.0000000000000000
 -0.10790000000000000         -1.1656445163147629E-032
 -0.10679999999999999          5.4326452961034954E-032
 -0.10569999999999999         -1.5740200376719621E-030
 -0.10460000000000000         -1.1202528871811007E-029
 -0.10349999999999999         -9.5960221199433359E-031
 -0.10239999999999999          8.5128330398414022E-029
 -0.10130000000000000         -3.5792916904300960E-028
 -0.10020000000000000         -2.8624586391992224E-027
  -9.9099999999999994E-002    -1.3290522841845546E-027
  -9.7999999999999990E-002     3.1703053289301035E-026
  -9.6899999999999986E-002     8.1823075139021406E-026
  -9.5799999999999996E-002    -1.2245893355554856E-025
  -9.4699999999999993E-002    -9.5857634176264713E-025
  -9.3599999999999989E-002    -1.1120104780814260E-024
  -9.2499999999999999E-002     4.4783527093174635E-024
  -9.1399999999999995E-002     1.7060989831193375E-023
  -9.0299999999999991E-002     8.8850587046400391E-024
  -8.9200000000000002E-002    -8.0341803949498102E-023
  -8.8099999999999984E-002    -2.2013447550118214E-022
  -8.6999999999999994E-002    -5.0266816414970840E-023
  -8.5899999999999990E-002     9.7713819863059137E-022
  -8.4799999999999986E-002     2.2810004203677327E-021
  -8.3699999999999997E-002     3.7433161465356978E-022
  -8.2599999999999993E-002    -8.9841774617939254E-021
  -8.1499999999999989E-002    -1.9943248636058204E-020
  -8.0399999999999999E-002    -5.1208469706331320E-021
  -7.9299999999999995E-002     6.5451596546447437E-020
  -7.8199999999999992E-002     1.4999325501030578E-019
  -7.7100000000000002E-002     6.6483969649701900E-020
  -7.5999999999999984E-002    -3.8354268618218954E-019
  -7.4899999999999994E-002    -9.7424370949033507E-019
  -7.3799999999999991E-002    -6.6000472241906998E-019
  -7.2699999999999987E-002     1.7825671890165679E-018
  -7.1599999999999997E-002     5.4487536729919382E-018
  -7.0499999999999993E-002     5.1099698590019637E-018
  -6.9399999999999989E-002    -6.1167280738178034E-018
  -6.8300000000000000E-002    -2.6043943713632137E-017
  -6.7199999999999996E-002    -3.1964627914323341E-017
  -6.6099999999999992E-002     1.0849520117107838E-017
  -6.5000000000000002E-002     1.0482861226373500E-016
  -6.3899999999999985E-002     1.6537397146810075E-016
  -6.2799999999999995E-002     3.7230522559562469E-017
  -6.1699999999999991E-002    -3.4395694529259948E-016
  -6.0599999999999994E-002    -7.1574559328696236E-016
  -5.9499999999999990E-002    -4.6874369196667513E-016
  -5.8399999999999994E-002     8.4206944006250855E-016
  -5.7299999999999990E-002     2.5901130385304815E-015
  -5.6199999999999986E-002     2.6970570891102046E-015
  -5.5099999999999996E-002    -1.0082083881610983E-015
  -5.3999999999999992E-002    -7.7019435344412648E-015
  -5.2899999999999989E-002    -1.1333083146795094E-014
  -5.1799999999999985E-002    -3.4072719807680700E-015
  -5.0699999999999995E-002     1.7808306980210582E-014
  -4.9599999999999991E-002     3.7832591063841764E-014
  -4.8499999999999988E-002     2.8977085216996129E-014
  -4.7399999999999998E-002    -2.6039922239426590E-014
  -4.6299999999999994E-002    -1.0158381433126099E-013
  -4.5199999999999990E-002    -1.2193140919679324E-013
  -4.4099999999999986E-002    -1.1462996825080222E-014
  -4.2999999999999997E-002     2.1120393845289187E-013
  -4.1899999999999993E-002     3.7533114095010534E-013
  -4.0799999999999989E-002     2.3767421949809353E-013
  -3.9699999999999985E-002    -2.8651985840323635E-013
  -3.8599999999999995E-002    -8.9948209471002460E-013
  -3.7499999999999992E-002    -9.7392721058048304E-013
  -3.6399999999999988E-002    -2.5869670311094370E-014
  -3.5299999999999984E-002     1.6360122891828643E-012
  -3.4199999999999994E-002     2.7000459160153589E-012
  -3.3099999999999991E-002     1.6142624346612844E-012
  -3.1999999999999987E-002    -1.8842273661473508E-012
  -3.0899999999999997E-002    -5.6620029845189102E-012
  -2.9799999999999993E-002    -5.9687818923515046E-012
  -2.8699999999999989E-002    -4.0486735600371582E-013
  -2.7599999999999986E-002     8.7949977162216086E-012
  -2.6499999999999996E-002     1.4435578600535681E-011
  -2.5399999999999992E-002     8.9655956270195958E-012
  -2.4299999999999988E-002    -8.0946759711819638E-012
  -2.3199999999999985E-002    -2.6025350277625314E-011
  -2.2099999999999995E-002    -2.7924834319903447E-011
  -2.0999999999999991E-002    -4.3128161632266515E-012
  -1.9899999999999987E-002     3.4152222716521408E-011
  -1.8799999999999983E-002     5.7817889365097130E-011
  -1.7699999999999994E-002     3.8124590290289362E-011
  -1.6599999999999990E-002    -2.4705206630448728E-011
  -1.5499999999999986E-002    -8.9961343929800819E-011
  -1.4399999999999996E-002    -9.8525909653091048E-011
  -1.3299999999999992E-002    -2.1079995388140205E-011
  -1.2199999999999989E-002     1.0327807359322705E-010
  -1.1099999999999985E-002     1.7813672759103838E-010
  -9.9999999999999950E-003     1.1838111046991173E-010
  -8.8999999999999913E-003    -6.7419077265373772E-011
  -7.7999999999999875E-003    -2.5290666783028826E-010
  -6.6999999999999837E-003    -2.7037902472493158E-010
  -5.5999999999999939E-003    -5.0517496436031095E-011
  -4.4999999999999901E-003     2.8281971209409562E-010
  -3.3999999999999864E-003     4.6422693467107479E-010
  -2.2999999999999826E-003     2.8348934311139828E-010
  -1.1999999999999927E-003    -2.0730540895019800E-010
  -9.9999999999988987E-005    -6.6134847598320334E-010
   1.0000000000000148E-003    -6.6078176264028343E-010
   2.1000000000000185E-003    -6.9935911228835579E-011
   3.2000000000000084E-003     7.6146011718236650E-010
   4.3000000000000121E-003     1.1691448920103653E-009
   5.4000000000000159E-003     6.7174399376312977E-010
   6.5000000000000058E-003    -5.5559723488585178E-010
   7.6000000000000234E-003    -1.6544140502006144E-009
   8.7000000000000133E-003    -1.6444504646884184E-009
   9.8000000000000032E-003    -2.3715315822236960E-010
   1.0900000000000021E-002     1.7393241291685513E-009
   1.2000000000000011E-002     2.7663491497520454E-009
   1.3100000000000001E-002     1.7539547592093641E-009
   1.4200000000000018E-002    -9.3740226692062834E-010
   1.5300000000000008E-002    -3.4638449886159606E-009
   1.6400000000000026E-002    -3.7075180703283195E-009
   1.7500000000000016E-002    -9.8503571965835590E-010
   1.8600000000000005E-002     3.0747198120906205E-009
   1.9700000000000023E-002     5.4007722738447228E-009
   2.0800000000000013E-002     3.7392711149664137E-009
   2.1900000000000003E-002    -1.3016665523224447E-009
   2.3000000000000020E-002    -6.1804548145971694E-009
   2.4100000000000010E-002    -6.7911480883253716E-009
   2.5200000000000000E-002    -1.7887323844334446E-009
   2.6300000000000018E-002     5.7210813864116972E-009
   2.7400000000000008E-002     9.8797130476668826E-009
   2.8500000000000025E-002     6.4341829641989534E-009
   2.9600000000000015E-002    -3.3464730986310087E-009
   3.0700000000000005E-002    -1.2564245643886807E-008
   3.1800000000000023E-002    -1.3270403442788847E-008
   3.2900000000000013E-002    -2.8818776254269096E-009
   3.4000000000000002E-002     1.2513977409867039E-008
   3.5100000000000020E-002     2.1334683353302353E-008
   3.6200000000000010E-002     1.4851613272526265E-008
   3.7300000000000028E-002    -5.1001571854669692E-009
   3.8400000000000017E-002    -2.5462203012693863E-008
   3.9500000000000007E-002    -3.0224430958014636E-008
   4.0600000000000025E-002    -1.2615608113719645E-008
   4.1700000000000015E-002     1.7862999968087934E-008
   4.2800000000000005E-002     4.0073825147146636E-008
   4.3900000000000022E-002     3.5819521571056612E-008
   4.5000000000000012E-002     4.4218673167506495E-009
   4.6100000000000002E-002    -3.4193085696188064E-008
   4.7200000000000020E-002    -5.2018066298842314E-008
   4.8300000000000010E-002    -3.3456270642773234E-008
   4.9400000000000027E-002     1.1213701078816030E-008
   5.0500000000000017E-002     5.0845024190948607E-008
   5.1600000000000007E-002     5.5227562967274935E-008
   5.2700000000000025E-002     1.8533409473775464E-008
   5.3800000000000014E-002    -3.3866196957887951E-008
   5.4900000000000004E-002    -6.2414095225449273E-008
   5.6000000000000022E-002    -4.3268265415008500E-008
   5.7100000000000012E-002     1.1371532160353581E-008
   5.8200000000000002E-002     5.9798082929773955E-008
   5.9300000000000019E-002     6.1773363313477603E-008
   6.0400000000000009E-002     1.1488858753239128E-008
   6.1500000000000027E-002    -5.4107626823451938E-008
   6.2600000000000017E-002    -8.1205421054164617E-008
   6.3700000000000007E-002    -4.1918596593859547E-008
   6.4800000000000024E-002     3.9345820823655231E-008
   6.5900000000000014E-002     9.9804559283711569E-008
   6.7000000000000004E-002     8.5990627951559873E-008
   6.8100000000000022E-002    -2.4159793610145641E-010
   6.9200000000000012E-002    -9.6199308075028966E-008
   7.0300000000000029E-002    -1.2351128475529549E-007
   7.1400000000000019E-002    -5.2885333445829019E-008
   7.2500000000000009E-002     6.3892088064676500E-008
   7.3600000000000027E-002     1.2743333854814409E-007
   7.4700000000000016E-002     7.1841562032659567E-008
   7.5800000000000006E-002    -6.8554015797417378E-008
   7.6900000000000024E-002    -1.6818982828681328E-007
   7.8000000000000014E-002    -1.0354021640068822E-007
   7.9100000000000004E-002     1.3122854625180480E-007
   8.0200000000000021E-002     3.8083854292381147E-007
   8.1300000000000011E-002     4.1296127051282383E-007
   8.2400000000000029E-002     9.1855234529703012E-008
   8.3500000000000019E-002    -4.7801944447201095E-007
   8.4600000000000009E-002    -9.6046505859703757E-007
   8.5700000000000026E-002    -9.7665235898602987E-007
   8.6800000000000016E-002    -3.6999063013354316E-007
   8.7900000000000006E-002     6.3507360437142779E-007
   8.9000000000000024E-002     1.5145111547099077E-006
   9.0100000000000013E-002     1.7453005511924857E-006
   9.1200000000000003E-002     1.1422151828810456E-006
   9.2300000000000021E-002    -7.4657824367108105E-010
   9.3400000000000011E-002    -1.0811471611305024E-006
   9.4500000000000028E-002    -1.5756723996673827E-006
   9.5600000000000018E-002    -1.3847950413037324E-006
   9.6700000000000008E-002    -8.8432318534614751E-007
   9.7800000000000026E-002    -6.2671921341461712E-007
   9.8900000000000016E-002    -8.8721907332001138E-007
  0.10000000000000001         -1.3813407804263989E-006
  0.10110000000000002         -1.3844720569977653E-006
  0.10220000000000001         -2.1175516451421572E-007
  0.10330000000000003          2.2484027795144357E-006
  0.10440000000000002          5.3184539865469560E-006
  0.10550000000000001          7.8080956882331520E-006
  0.10660000000000003          8.6239897427731194E-006
  0.10770000000000002          7.3143660301866475E-006
  0.10880000000000001          4.1806115405051969E-006
  0.10990000000000003         -1.2057952858413046E-007
  0.11100000000000002         -5.2056639106012881E-006
  0.11210000000000001         -1.1376552720321342E-005
  0.11320000000000002         -1.9515504391165450E-005
  0.11430000000000001         -3.0526651244144887E-005
  0.11540000000000003         -4.4720192818203941E-005
  0.11650000000000002         -6.1598373576998711E-005
  0.11760000000000001         -8.0246572906617075E-005
  0.11870000000000003         -1.0013169230660424E-004
  0.11980000000000002         -1.2183800572529435E-004
  0.12090000000000001         -1.4730957627762109E-004
  0.12200000000000003         -1.7948192544281483E-004
  0.12310000000000001         -2.2155520855449140E-004
  0.12420000000000003         -2.7634293655864894E-004
  0.12530000000000002         -3.4603048698045313E-004
  0.12640000000000001         -4.3240314698778093E-004
  0.12750000000000003         -5.3735909750685096E-004
  0.12860000000000002         -6.6346029052510858E-004
  0.12970000000000001         -8.1437244080007076E-004
  0.13080000000000003         -9.9516951013356447E-004
  0.13190000000000002         -1.2125084176659584E-003
  0.13300000000000001         -1.4746256638318300E-003
  0.13410000000000000         -1.7910853493958712E-003
  0.13520000000000004         -2.1723227109760046E-003
  0.13630000000000003         -2.6292605325579643E-003
  0.13740000000000002         -3.1733894720673561E-003
  0.13850000000000001         -3.8175347726792097E-003
  0.13960000000000000         -4.5771002769470215E-003
  0.14070000000000005         -5.4711466655135155E-003
  0.14180000000000004         -6.5225693397223949E-003
  0.14290000000000003         -7.7571435831487179E-003
  0.14400000000000002         -9.2019783332943916E-003
  0.14510000000000001         -1.0884499177336693E-002
  0.14620000000000000         -1.2832942418754101E-002
  0.14730000000000004         -1.5078431926667690E-002
  0.14840000000000003         -1.7657622694969177E-002
  0.14950000000000002         -2.0614253357052803E-002
  0.15060000000000001         -2.3998407647013664E-002
  0.15170000000000000         -2.7863640338182449E-002
  0.15280000000000005         -3.2263547182083130E-002
  0.15390000000000004         -3.7249822169542313E-002
  0.15500000000000003         -4.2872980237007141E-002
  0.15610000000000002         -4.9185249954462051E-002
  0.15720000000000001         -5.6243382394313812E-002
  0.15830000000000000         -6.4109168946743011E-002
  0.15940000000000004         -7.2846747934818268E-002
  0.16050000000000003         -8.2517817616462708E-002
  0.16160000000000002         -9.3177467584609985E-002
  0.16270000000000001        -0.10487251728773117
  0.16380000000000000        -0.11764265596866608
  0.16490000000000005        -0.13152271509170532
  0.16600000000000004        -0.14654302597045898
  0.16710000000000003        -0.16272649168968201
  0.16820000000000002        -0.18008272349834442
  0.16930000000000001        -0.19860135018825531
  0.17040000000000000        -0.21824789047241211
  0.17150000000000004        -0.23896349966526031
  0.17260000000000003        -0.26066789031028748
  0.17370000000000002        -0.28326186537742615
  0.17480000000000001        -0.30662670731544495
  0.17590000000000000        -0.33061936497688293
  0.17700000000000005        -0.35506525635719299
  0.17810000000000004        -0.37975251674652100
  0.17920000000000003        -0.40443110466003418
  0.18030000000000002        -0.42881697416305542
  0.18140000000000001        -0.45259630680084229
  0.18250000000000000        -0.47542932629585266
  0.18360000000000004        -0.49695289134979248
  0.18470000000000003        -0.51678049564361572
  0.18580000000000002        -0.53450107574462891
  0.18690000000000001        -0.54968130588531494
  0.18800000000000000        -0.56187129020690918
  0.18910000000000005        -0.57061004638671875
  0.19020000000000004        -0.57543540000915527
  0.19130000000000003        -0.57589673995971680
  0.19240000000000002        -0.57156163454055786
  0.19350000000000001        -0.56201982498168945
  0.19460000000000005        -0.54688757658004761
  0.19570000000000004        -0.52581685781478882
  0.19680000000000003        -0.49850919842720032
  0.19790000000000002        -0.46472802758216858
  0.19900000000000001        -0.42430865764617920
  0.20010000000000000        -0.37716218829154968
  0.20120000000000005        -0.32327780127525330
  0.20230000000000004        -0.26273161172866821
  0.20340000000000003        -0.19569708406925201
  0.20450000000000002        -0.12245327234268188
  0.20560000000000000         -4.3385464698076248E-002
  0.20670000000000005          4.1017793118953705E-002
  0.20780000000000004         0.13017056882381439
  0.20890000000000003         0.22339119017124176
