 -0.12000000000000000          0.0000000000000000
 -0.11889999999999999          0.0000000000000000
 -0.11780000000000000          0.0000000000000000
 -0.11670000000000000          0.0000000000000000
 -0.11559999999999999         -2.8465471811140374E-015
 -0.11449999999999999         -4.7506537413774183E-015
 -0.11340000000000000          6.2831616537244173E-015
 -0.11230000000000000         -2.7588066379979903E-014
 -0.11119999999999999         -3.1178632267127304E-013
 -0.11009999999999999         -9.3012359966837543E-013
 -0.10900000000000000         -1.1582511208821367E-012
 -0.10790000000000000          6.4714265847129471E-013
 -0.10679999999999999          5.1369425206615471E-012
 -0.10569999999999999          8.7002020171533800E-012
 -0.10460000000000000          3.2176396963512488E-012
 -0.10349999999999999         -1.6602611646598930E-011
 -0.10239999999999999         -4.1243990861472568E-011
 -0.10130000000000000         -4.3077336836505609E-011
 -0.10020000000000000          5.0746047988714515E-012
  -9.9099999999999994E-002     9.5216168283229763E-011
  -9.7999999999999990E-002     1.6441334405037367E-010
  -9.6899999999999986E-002     1.2411977001747232E-010
  -9.5799999999999996E-002    -6.3675460737488976E-011
  -9.4699999999999993E-002    -3.1918520604357070E-010
  -9.3599999999999989E-002    -4.5953973959456107E-010
  -9.2499999999999999E-002    -3.1565114411158390E-010
  -9.1399999999999995E-002     1.2113848812944639E-010
  -9.0299999999999991E-002     6.4407207345240636E-010
  -8.9200000000000002E-002     9.3421081981404086E-010
  -8.8099999999999984E-002     7.6161627005078003E-010
  -8.6999999999999994E-002     1.3611478610897620E-010
  -8.5899999999999990E-002    -7.0177014199757082E-010
  -8.4799999999999986E-002    -1.4220719046775798E-009
  -8.3699999999999997E-002    -1.7468010371501919E-009
  -8.2599999999999993E-002    -1.4937681092064281E-009
  -8.1499999999999989E-002    -5.6231491685210244E-010
  -8.0399999999999999E-002     1.0138629935596555E-009
  -7.9299999999999995E-002     2.9037894311301216E-009
  -7.8199999999999992E-002     4.3524401860395301E-009
  -7.7100000000000002E-002     4.3301073837653803E-009
  -7.5999999999999984E-002     2.0481396578730937E-009
  -7.4899999999999994E-002    -2.3844186625154862E-009
  -7.3799999999999991E-002    -7.6066104526262279E-009
  -7.2699999999999987E-002    -1.1299068347625507E-008
  -7.1599999999999997E-002    -1.1093995944122526E-008
  -7.0499999999999993E-002    -5.6878715071206898E-009
  -6.9399999999999989E-002     4.3731853693884659E-009
  -6.8300000000000000E-002     1.6568236560488003E-008
  -6.7199999999999996E-002     2.6940545794218451E-008
  -6.6099999999999992E-002     3.1059066429861559E-008
  -6.5000000000000002E-002     2.5066647424409894E-008
  -6.3899999999999985E-002     6.4735723448450244E-009
  -6.2799999999999995E-002    -2.5606514242326739E-008
  -6.1699999999999991E-002    -7.0943229957265430E-008
  -6.0599999999999994E-002    -1.2927610271162848E-007
  -5.9499999999999990E-002    -2.0155238189545344E-007
  -5.8399999999999994E-002    -2.9075474117234990E-007
  -5.7299999999999990E-002    -4.0201945239459747E-007
  -5.6199999999999986E-002    -5.4223141887632664E-007
  -5.5099999999999996E-002    -7.1960755576583324E-007
  -5.3999999999999992E-002    -9.4366833991443855E-007
  -5.2899999999999989E-002    -1.2255795809323899E-006
  -5.1799999999999985E-002    -1.5785467439854983E-006
  -5.0699999999999995E-002    -2.0180659703328274E-006
  -4.9599999999999991E-002    -2.5622318844398251E-006
  -4.8499999999999988E-002    -3.2324951462214813E-006
  -4.7399999999999998E-002    -4.0549839468440041E-006
  -4.6299999999999994E-002    -5.0619796638784464E-006
  -4.5199999999999990E-002    -6.2929402702138759E-006
  -4.4099999999999986E-002    -7.7948870966793038E-006
  -4.2999999999999997E-002    -9.6226840469171293E-006
  -4.1899999999999993E-002    -1.1840089428005740E-005
  -4.0799999999999989E-002    -1.4522010133077856E-005
  -3.9699999999999985E-002    -1.7757598470780067E-005
  -3.8599999999999995E-002    -2.1653335352311842E-005
  -3.7499999999999992E-002    -2.6335461370763369E-005
  -3.6399999999999988E-002    -3.1951833079801872E-005
  -3.5299999999999984E-002    -3.8673679227940738E-005
  -3.4199999999999994E-002    -4.6697601646883413E-005
  -3.3099999999999991E-002    -5.6247772590722889E-005
  -3.1999999999999987E-002    -6.7578315793070942E-005
  -3.0899999999999997E-002    -8.0976184108294547E-005
  -2.9799999999999993E-002    -9.6765310445334762E-005
  -2.8699999999999989E-002    -1.1531220661709085E-004
  -2.7599999999999986E-002    -1.3703246077056974E-004
  -2.6499999999999996E-002    -1.6239663818851113E-004
  -2.5399999999999992E-002    -1.9193459593225271E-004
  -2.4299999999999988E-002    -2.2623833501711488E-004
  -2.3199999999999985E-002    -2.6596442330628633E-004
  -2.2099999999999995E-002    -3.1183724058791995E-004
  -2.0999999999999991E-002    -3.6465295124799013E-004
  -1.9899999999999987E-002    -4.2528336052782834E-004
  -1.8799999999999983E-002    -4.9467833014205098E-004
  -1.7699999999999994E-002    -5.7386705884709954E-004
  -1.6599999999999990E-002    -6.6395854810252786E-004
  -1.5499999999999986E-002    -7.6614128192886710E-004
  -1.4399999999999996E-002    -8.8168168440461159E-004
  -1.3299999999999992E-002    -1.0119206272065639E-003
  -1.2199999999999989E-002    -1.1582665611058474E-003
  -1.1099999999999985E-002    -1.3221872504800558E-003
  -9.9999999999999950E-003    -1.5051995869725943E-003
  -8.8999999999999913E-003    -1.7088593449443579E-003
  -7.7999999999999875E-003    -1.9347486086189747E-003
  -6.6999999999999837E-003    -2.1844583097845316E-003
  -5.5999999999999939E-003    -2.4595670402050018E-003
  -4.4999999999999901E-003    -2.7616149745881557E-003
  -3.3999999999999864E-003    -3.0920770950615406E-003
  -2.2999999999999826E-003    -3.4523345530033112E-003
  -1.1999999999999927E-003    -3.8436437025666237E-003
  -9.9999999999988987E-005    -4.2671021074056625E-003
   1.0000000000000148E-003    -4.7236103564500809E-003
   2.1000000000000185E-003    -5.2138306200504303E-003
   3.2000000000000084E-003    -5.7381447404623032E-003
   4.3000000000000121E-003    -6.2966146506369114E-003
   5.4000000000000159E-003    -6.8889348767697811E-003
   6.5000000000000058E-003    -7.5143934227526188E-003
   7.6000000000000234E-003    -8.1718219444155693E-003
   8.7000000000000133E-003    -8.8595561683177948E-003
   9.8000000000000032E-003    -9.5753930509090424E-003
   1.0900000000000021E-002    -1.0316561907529831E-002
   1.2000000000000011E-002    -1.1079691350460052E-002
   1.3100000000000001E-002    -1.1860786005854607E-002
   1.4200000000000018E-002    -1.2655200436711311E-002
   1.5300000000000008E-002    -1.3457627967000008E-002
   1.6400000000000026E-002    -1.4262090437114239E-002
   1.7500000000000016E-002    -1.5061947517096996E-002
   1.8600000000000005E-002    -1.5849914401769638E-002
   1.9700000000000023E-002    -1.6618076711893082E-002
   2.0800000000000013E-002    -1.7357936128973961E-002
   2.1900000000000003E-002    -1.8060445785522461E-002
   2.3000000000000020E-002    -1.8716080114245415E-002
   2.4100000000000010E-002    -1.9314898177981377E-002
   2.5200000000000000E-002    -1.9846636801958084E-002
   2.6300000000000018E-002    -2.0300799980759621E-002
   2.7400000000000008E-002    -2.0666752010583878E-002
   2.8500000000000025E-002    -2.0933836698532104E-002
   2.9600000000000015E-002    -2.1091498434543610E-002
   3.0700000000000005E-002    -2.1129406988620758E-002
   3.1800000000000023E-002    -2.1037604659795761E-002
   3.2900000000000013E-002    -2.0806640386581421E-002
   3.4000000000000002E-002    -2.0427707582712173E-002
   3.5100000000000020E-002    -1.9892785698175430E-002
   3.6200000000000010E-002    -1.9194779917597771E-002
   3.7300000000000028E-002    -1.8327664583921432E-002
   3.8400000000000017E-002    -1.7286613583564758E-002
   3.9500000000000007E-002    -1.6068121418356895E-002
   4.0600000000000025E-002    -1.4670113101601601E-002
   4.1700000000000015E-002    -1.3092045672237873E-002
   4.2800000000000005E-002    -1.1335002258419991E-002
   4.3900000000000022E-002    -9.4017609953880310E-003
   4.5000000000000012E-002    -7.2968588210642338E-003
   4.6100000000000002E-002    -5.0266264006495476E-003
   4.7200000000000020E-002    -2.5992072187364101E-003
   4.8300000000000010E-002    -2.4559718440286815E-005
   4.9400000000000027E-002     2.6855606120079756E-003
   5.0500000000000017E-002     5.5176382884383202E-003
   5.1600000000000007E-002     8.4564564749598503E-003
   5.2700000000000025E-002     1.1485181748867035E-002
   5.3800000000000014E-002     1.4585465192794800E-002
   5.4900000000000004E-002     1.7737559974193573E-002
   5.6000000000000022E-002     2.0920462906360626E-002
   5.7100000000000012E-002     2.4112060666084290E-002
   5.8200000000000002E-002     2.7289308607578278E-002
   5.9300000000000019E-002     3.0428422614932060E-002
   6.0400000000000009E-002     3.3505070954561234E-002
   6.1500000000000027E-002     3.6494601517915726E-002
   6.2600000000000017E-002     3.9372246712446213E-002
   6.3700000000000007E-002     4.2113360017538071E-002
   6.4800000000000024E-002     4.4693656265735626E-002
   6.5900000000000014E-002     4.7089453786611557E-002
   6.7000000000000004E-002     4.9277935177087784E-002
   6.8100000000000022E-002     5.1237363368272781E-002
   6.9200000000000012E-002     5.2947346121072769E-002
   7.0300000000000029E-002     5.4389044642448425E-002
   7.1400000000000019E-002     5.5545426905155182E-002
   7.2500000000000009E-002     5.6401468813419342E-002
   7.3600000000000027E-002     5.6944370269775391E-002
   7.4700000000000016E-002     5.7163730263710022E-002
   7.5800000000000006E-002     5.7051714509725571E-002
   7.6900000000000024E-002     5.6603200733661652E-002
   7.8000000000000014E-002     5.5815909057855606E-002
   7.9100000000000004E-002     5.4690480232238770E-002
   8.0200000000000021E-002     5.3230561316013336E-002
   8.1300000000000011E-002     5.1442816853523254E-002
   8.2400000000000029E-002     4.9336932599544525E-002
   8.3500000000000019E-002     4.6925578266382217E-002
   8.4600000000000009E-002     4.4224336743354797E-002
   8.5700000000000026E-002     4.1251588612794876E-002
   8.6800000000000016E-002     3.8028378039598465E-002
   8.7900000000000006E-002     3.4578230232000351E-002
   8.9000000000000024E-002     3.0926931649446487E-002
   9.0100000000000013E-002     2.7102280408143997E-002
   9.1200000000000003E-002     2.3133806884288788E-002
   9.2300000000000021E-002     1.9052479416131973E-002
   9.3400000000000011E-002     1.4890365302562714E-002
   9.4500000000000028E-002     1.0680289007723331E-002
   9.5600000000000018E-002     6.4554619602859020E-003
   9.6700000000000008E-002     2.2491170093417168E-003
   9.7800000000000026E-002    -1.9058650359511375E-003
   9.8900000000000016E-002    -5.9773242101073265E-003
  0.10000000000000001         -9.9341878667473793E-003
  0.10110000000000002         -1.3746826909482479E-002
  0.10220000000000001         -1.7387384548783302E-002
  0.10330000000000003         -2.0830089226365089E-002
  0.10440000000000002         -2.4051522836089134E-002
  0.10550000000000001         -2.7030868455767632E-002
  0.10660000000000003         -2.9750121757388115E-002
  0.10770000000000002         -3.2194253057241440E-002
  0.10880000000000001         -3.4351337701082230E-002
  0.10990000000000003         -3.6212634295225143E-002
  0.11100000000000002         -3.7772603332996368E-002
  0.11210000000000001         -3.9028901606798172E-002
  0.11320000000000002         -3.9982322603464127E-002
  0.11430000000000001         -4.0636699646711349E-002
  0.11540000000000003         -4.0998764336109161E-002
  0.11650000000000002         -4.1077967733144760E-002
  0.11760000000000001         -4.0886271744966507E-002
  0.11870000000000003         -4.0437903255224228E-002
  0.11980000000000002         -3.9749085903167725E-002
  0.12090000000000001         -3.8837768137454987E-002
  0.12200000000000003         -3.7723332643508911E-002
  0.12310000000000001         -3.6426275968551636E-002
  0.12420000000000003         -3.4967917948961258E-002
  0.12530000000000002         -3.3370073884725571E-002
  0.12640000000000001         -3.1654771417379379E-002
  0.12750000000000003         -2.9843972995877266E-002
  0.12860000000000002         -2.7959298342466354E-002
  0.12970000000000001         -2.6021774858236313E-002
  0.13080000000000003         -2.4051614105701447E-002
  0.13190000000000002         -2.2068012505769730E-002
  0.13300000000000001         -2.0088970661163330E-002
  0.13410000000000000         -1.8131159245967865E-002
  0.13520000000000004         -1.6209805384278297E-002
  0.13630000000000003         -1.4338590204715729E-002
  0.13740000000000002         -1.2529604136943817E-002
  0.13850000000000001         -1.0793312452733517E-002
  0.13960000000000000         -9.1385524719953537E-003
  0.14070000000000005         -7.5725563801825047E-003
  0.14180000000000004         -6.1009894125163555E-003
  0.14290000000000003         -4.7280089929699898E-003
  0.14400000000000002         -3.4563455265015364E-003
  0.14510000000000001         -2.2873955313116312E-003
  0.14620000000000000         -1.2213286245241761E-003
  0.14730000000000004         -2.5720140547491610E-004
  0.14840000000000003          6.0692697297781706E-004
  0.14950000000000002          1.3738746056333184E-003
  0.15060000000000001          2.0472137257456779E-003
  0.15170000000000000          2.6311455294489861E-003
  0.15280000000000005          3.1303789000958204E-003
  0.15390000000000004          3.5500158555805683E-003
  0.15500000000000003          3.8954473566263914E-003
  0.15610000000000002          4.1722548194229603E-003
  0.15720000000000001          4.3861186131834984E-003
  0.15830000000000000          4.5427307486534119E-003
  0.15940000000000004          4.6477178111672401E-003
  0.16050000000000003          4.7065764665603638E-003
  0.16160000000000002          4.7246185131371021E-003
  0.16270000000000001          4.7069322317838669E-003
  0.16380000000000000          4.6583423390984535E-003
  0.16490000000000005          4.5833820477128029E-003
  0.16600000000000004          4.4862702488899231E-003
  0.16710000000000003          4.3708984740078449E-003
  0.16820000000000002          4.2408262379467487E-003
  0.16930000000000001          4.0992815047502518E-003
  0.17040000000000000          3.9491676725447178E-003
  0.17150000000000004          3.7930682301521301E-003
  0.17260000000000003          3.6332586314529181E-003
  0.17370000000000002          3.4717209637165070E-003
  0.17480000000000001          3.3101614098995924E-003
  0.17590000000000000          3.1500302720814943E-003
  0.17700000000000005          2.9925417620688677E-003
  0.17810000000000004          2.8386937920004129E-003
  0.17920000000000003          2.6892882306128740E-003
  0.18030000000000002          2.5449523236602545E-003
  0.18140000000000001          2.4061608128249645E-003
  0.18250000000000000          2.2732520010322332E-003
  0.18360000000000004          2.1464461460709572E-003
  0.18470000000000003          2.0258587319403887E-003
  0.18580000000000002          1.9115172326564789E-003
  0.18690000000000001          1.8033765954896808E-003
  0.18800000000000000          1.7013328615576029E-003
  0.18910000000000005          1.6052342252805829E-003
  0.19020000000000004          1.5148895327001810E-003
  0.19130000000000003          1.4300764305517077E-003
  0.19240000000000002          1.3505509123206139E-003
  0.19350000000000001          1.2760567478835583E-003
  0.19460000000000005          1.2063325848430395E-003
  0.19570000000000004          1.1411153245717287E-003
  0.19680000000000003          1.0801407042890787E-003
  0.19790000000000002          1.0231455089524388E-003
  0.19900000000000001          9.6987118013203144E-004
  0.20010000000000000          9.2006870545446873E-004
  0.20120000000000005          8.7350228568539023E-004
  0.20230000000000004          8.2994939293712378E-004
  0.20340000000000003          7.8919867519289255E-004
  0.20450000000000002          7.5104867573827505E-004
  0.20560000000000000          7.1530847344547510E-004
  0.20670000000000005          6.8180018570274115E-004
  0.20780000000000004          6.5036024898290634E-004
  0.20890000000000003          6.2083901138976216E-004
