 -0.12000000000000000          0.0000000000000000
 -0.11889999999999999          0.0000000000000000
 -0.11780000000000000          0.0000000000000000
 -0.11670000000000000          0.0000000000000000
 -0.11559999999999999          0.0000000000000000
 -0.11449999999999999          0.0000000000000000
 -0.11340000000000000          0.0000000000000000
 -0.11230000000000000         -8.3576060808021931E-020
 -0.11119999999999999         -2.8707760692929144E-019
 -0.11009999999999999          1.0272808760060101E-018
 -0.10900000000000000          8.9520720166683737E-018
 -0.10790000000000000          2.3113553823267080E-017
 -0.10679999999999999          9.1059358824093624E-018
 -0.10569999999999999         -1.1069518892619788E-016
 -0.10460000000000000         -3.4416851824095585E-016
 -0.10349999999999999         -3.7702487332539095E-016
 -0.10239999999999999          4.7798895070683741E-016
 -0.10130000000000000          2.5010058077540396E-015
 -0.10020000000000000          3.9649972249976382E-015
  -9.9099999999999994E-002     5.8654670493019827E-016
  -9.7999999999999990E-002    -1.0877393820732384E-014
  -9.6899999999999986E-002    -2.4694371439197560E-014
  -9.5799999999999996E-002    -2.1398600122748968E-014
  -9.4699999999999993E-002     2.0925056189191084E-014
  -9.3599999999999989E-002     9.5686371152925442E-014
  -9.2499999999999999E-002     1.4000339245128640E-013
  -9.1399999999999995E-002     5.4875805370049532E-014
  -9.0299999999999991E-002    -2.0209231694785085E-013
  -8.9200000000000002E-002    -5.0194787562518606E-013
  -8.8099999999999984E-002    -5.3512115528661641E-013
  -8.6999999999999994E-002    -1.2878300788515644E-014
  -8.5899999999999990E-002     9.8792588693052963E-013
  -8.4799999999999986E-002     1.8245385671050718E-012
  -8.3699999999999997E-002     1.5550755128046490E-012
  -8.2599999999999993E-002    -3.1511951251519954E-013
  -8.1499999999999989E-002    -3.0994738026146607E-012
  -8.0399999999999999E-002    -4.9434562346406530E-012
  -7.9299999999999995E-002    -3.9107142003891315E-012
  -7.8199999999999992E-002     4.4463459064787714E-013
  -7.7100000000000002E-002     6.2648506174434182E-012
  -7.5999999999999984E-002     1.0219187475402070E-011
  -7.4899999999999994E-002     9.5522895149358078E-012
  -7.3799999999999991E-002     3.7741918965106258E-012
  -7.2699999999999987E-002    -5.3317710489719783E-012
  -7.1599999999999997E-002    -1.5047922977129424E-011
  -7.0499999999999993E-002    -2.2629129473039633E-011
  -6.9399999999999989E-002    -2.4611769219862190E-011
  -6.8300000000000000E-002    -1.5913312334525642E-011
  -6.7199999999999996E-002     8.0887735745549527E-012
  -6.6099999999999992E-002     4.5256215441824565E-011
  -6.5000000000000002E-002     8.0296144733260633E-011
  -6.3899999999999985E-002     8.6380347319447992E-011
  -6.2799999999999995E-002     3.9756697933768237E-011
  -6.1699999999999991E-002    -5.8325767826605812E-011
  -6.0599999999999994E-002    -1.6858867080138396E-010
  -5.9499999999999990E-002    -2.2536676691498059E-010
  -5.8399999999999994E-002    -1.7329947199495876E-010
  -5.7299999999999990E-002    -8.3311291892984585E-012
  -5.6199999999999986E-002     2.0705531733611338E-010
  -5.5099999999999996E-002     3.7068068059475934E-010
  -5.3999999999999992E-002     3.9605230206518627E-010
  -5.2899999999999989E-002     2.5966440109215227E-010
  -5.1799999999999985E-002     8.0031545626746414E-012
  -5.0699999999999995E-002    -2.7671975821874639E-010
  -4.9599999999999991E-002    -5.1984466731269663E-010
  -4.8499999999999988E-002    -6.6891769900934150E-010
  -4.7399999999999998E-002    -6.7269573245098968E-010
  -4.6299999999999994E-002    -4.5956741190344985E-010
  -4.5199999999999990E-002     3.5910812518080704E-011
  -4.4099999999999986E-002     7.8595741026532551E-010
  -4.2999999999999997E-002     1.5756780324949204E-009
  -4.1899999999999993E-002     1.9991908128957903E-009
  -4.0799999999999989E-002     1.6152063020413721E-009
  -3.9699999999999985E-002     2.3116529523914409E-010
  -3.8599999999999995E-002    -1.8332927398390098E-009
  -3.7499999999999992E-002    -3.7047325207595350E-009
  -3.6399999999999988E-002    -4.2626204788120958E-009
  -3.5299999999999984E-002    -2.7302242688875822E-009
  -3.4199999999999994E-002     7.2763556291377540E-010
  -3.3099999999999991E-002     4.7776902434293333E-009
  -3.1999999999999987E-002     7.3259349697707421E-009
  -3.0899999999999997E-002     6.5051590780740298E-009
  -2.9799999999999993E-002     1.8117318756338818E-009
  -2.8699999999999989E-002    -5.2444990572553252E-009
  -2.7599999999999986E-002    -1.1472176986160321E-008
  -2.6499999999999996E-002    -1.3327263737039630E-008
  -2.5399999999999992E-002    -8.6692262257770381E-009
  -2.4299999999999988E-002     1.9608485946065457E-009
  -2.3199999999999985E-002     1.5276706122335781E-008
  -2.2099999999999995E-002     2.6493637506064260E-008
  -2.0999999999999991E-002     3.1215314777455205E-008
  -1.9899999999999987E-002     2.6872118752407914E-008
  -1.8799999999999983E-002     1.2849237229772825E-008
  -1.7699999999999994E-002    -1.0776239456333769E-008
  -1.6599999999999990E-002    -4.5091724132362287E-008
  -1.5499999999999986E-002    -9.3578677251571207E-008
  -1.4399999999999996E-002    -1.6183160767013760E-007
  -1.3299999999999992E-002    -2.5582454554751166E-007
  -1.2199999999999989E-002    -3.7978625755386020E-007
  -1.1099999999999985E-002    -5.3518658660323126E-007
  -9.9999999999999950E-003    -7.2188311150966911E-007
  -8.8999999999999913E-003    -9.4130808747650008E-007
  -7.7999999999999875E-003    -1.2003185929643223E-006
  -6.6999999999999837E-003    -1.5137374020923744E-006
  -5.5999999999999939E-003    -1.9041140149056446E-006
  -4.4999999999999901E-003    -2.3986801807041047E-006
  -3.3999999999999864E-003    -3.0251158023020253E-006
  -2.2999999999999826E-003    -3.8086398035375169E-006
  -1.1999999999999927E-003    -4.7724920477776323E-006
  -9.9999999999988987E-005    -5.9422250160423573E-006
   1.0000000000000148E-003    -7.3522137427062262E-006
   2.1000000000000185E-003    -9.0515959527692758E-006
   3.2000000000000084E-003    -1.1107125828857534E-005
   4.3000000000000121E-003    -1.3602098078990821E-005
   5.4000000000000159E-003    -1.6632639017188922E-005
   6.5000000000000058E-003    -2.0304063582443632E-005
   7.6000000000000234E-003    -2.4729994038352743E-005
   8.7000000000000133E-003    -3.0035542295081541E-005
   9.8000000000000032E-003    -3.6363915569381788E-005
   1.0900000000000021E-002    -4.3884341721422970E-005
   1.2000000000000011E-002    -5.2798826800426468E-005
   1.3100000000000001E-002    -6.3346211391035467E-005
   1.4200000000000018E-002    -7.5803320214617997E-005
   1.5300000000000008E-002    -9.0484398242551833E-005
   1.6400000000000026E-002    -1.0774058318929747E-004
   1.7500000000000016E-002    -1.2796084047295153E-004
   1.8600000000000005E-002    -1.5157522284425795E-004
   1.9700000000000023E-002    -1.7905996355693787E-004
   2.0800000000000013E-002    -2.1094386465847492E-004
   2.1900000000000003E-002    -2.4781495449133217E-004
   2.3000000000000020E-002    -2.9032636666670442E-004
   2.4100000000000010E-002    -3.3920045825652778E-004
   2.5200000000000000E-002    -3.9523042505607009E-004
   2.6300000000000018E-002    -4.5927905011922121E-004
   2.7400000000000008E-002    -5.3227448370307684E-004
   2.8500000000000025E-002    -6.1520532472059131E-004
   2.9600000000000015E-002    -7.0911587681621313E-004
   3.0700000000000005E-002    -8.1510399468243122E-004
   3.1800000000000023E-002    -9.3432067660614848E-004
   3.2900000000000013E-002    -1.0679700644686818E-003
   3.4000000000000002E-002    -1.2173067079856992E-003
   3.5100000000000020E-002    -1.3836259022355080E-003
   3.6200000000000010E-002    -1.5682484954595566E-003
   3.7300000000000028E-002    -1.7724978970363736E-003
   3.8400000000000017E-002    -1.9976755138486624E-003
   3.9500000000000007E-002    -2.2450352553278208E-003
   4.0600000000000025E-002    -2.5157614145427942E-003
   4.1700000000000015E-002    -2.8109489940106869E-003
   4.2800000000000005E-002    -3.1315810047090054E-003
   4.3900000000000022E-002    -3.4785065799951553E-003
   4.5000000000000012E-002    -3.8524102419614792E-003
   4.6100000000000002E-002    -4.2537767440080643E-003
   4.7200000000000020E-002    -4.6828505583107471E-003
   4.8300000000000010E-002    -5.1395921036601067E-003
   4.9400000000000027E-002    -5.6236367672681808E-003
   5.0500000000000017E-002    -6.1342585831880569E-003
   5.1600000000000007E-002    -6.6703348420560360E-003
   5.2700000000000025E-002    -7.2303200140595436E-003
   5.3800000000000014E-002    -7.8122206032276154E-003
   5.4900000000000004E-002    -8.4135746583342552E-003
   5.6000000000000022E-002    -9.0314308181405067E-003
   5.7100000000000012E-002    -9.6623357385396957E-003
   5.8200000000000002E-002    -1.0302320122718811E-002
   5.9300000000000019E-002    -1.0946894995868206E-002
   6.0400000000000009E-002    -1.1591045185923576E-002
   6.1500000000000027E-002    -1.2229244224727154E-002
   6.2600000000000017E-002    -1.2855479493737221E-002
   6.3700000000000007E-002    -1.3463289476931095E-002
   6.4800000000000024E-002    -1.4045822434127331E-002
   6.5900000000000014E-002    -1.4595898799598217E-002
   6.7000000000000004E-002    -1.5106084756553173E-002
   6.8100000000000022E-002    -1.5568767674267292E-002
   6.9200000000000012E-002    -1.5976238995790482E-002
   7.0300000000000029E-002    -1.6320779919624329E-002
   7.1400000000000019E-002    -1.6594765707850456E-002
   7.2500000000000009E-002    -1.6790771856904030E-002
   7.3600000000000027E-002    -1.6901688650250435E-002
   7.4700000000000016E-002    -1.6920851543545723E-002
   7.5800000000000006E-002    -1.6842158511281013E-002
   7.6900000000000024E-002    -1.6660206019878387E-002
   7.8000000000000014E-002    -1.6370398923754692E-002
   7.9100000000000004E-002    -1.5969058498740196E-002
   8.0200000000000021E-002    -1.5453538857400417E-002
   8.1300000000000011E-002    -1.4822301454842091E-002
   8.2400000000000029E-002    -1.4075001701712608E-002
   8.3500000000000019E-002    -1.3212554156780243E-002
   8.4600000000000009E-002    -1.2237180024385452E-002
   8.5700000000000026E-002    -1.1152438819408417E-002
   8.6800000000000016E-002    -9.9632404744625092E-003
   8.7900000000000006E-002    -8.6758425459265709E-003
   8.9000000000000024E-002    -7.2978199459612370E-003
   9.0100000000000013E-002    -5.8380216360092163E-003
   9.1200000000000003E-002    -4.3064998462796211E-003
   9.2300000000000021E-002    -2.7144169434905052E-003
   9.3400000000000011E-002    -1.0739286663010716E-003
   9.4500000000000028E-002     6.0195202240720391E-004
   9.5600000000000018E-002     2.2995059844106436E-003
   9.6700000000000008E-002     4.0044705383479595E-003
   9.7800000000000026E-002     5.7022119872272015E-003
   9.8900000000000016E-002     7.3779053054749966E-003
  0.10000000000000001          9.0167215093970299E-003
  0.10110000000000002          1.0604014620184898E-002
  0.10220000000000001          1.2125508859753609E-002
  0.10330000000000003          1.3567483052611351E-002
  0.10440000000000002          1.4916949905455112E-002
  0.10550000000000001          1.6161821782588959E-002
  0.10660000000000003          1.7291063442826271E-002
  0.10770000000000002          1.8294841051101685E-002
  0.10880000000000001          1.9164634868502617E-002
  0.10990000000000003          1.9893333315849304E-002
  0.11100000000000002          2.0475314930081367E-002
  0.11210000000000001          2.0906500518321991E-002
  0.11320000000000002          2.1184388548135757E-002
  0.11430000000000001          2.1308062598109245E-002
  0.11540000000000003          2.1278176456689835E-002
  0.11650000000000002          2.1096913143992424E-002
  0.11760000000000001          2.0767930895090103E-002
  0.11870000000000003          2.0296292379498482E-002
  0.11980000000000002          1.9688365980982780E-002
  0.12090000000000001          1.8951734527945518E-002
  0.12200000000000003          1.8095074221491814E-002
  0.12310000000000001          1.7128033563494682E-002
  0.12420000000000003          1.6061099246144295E-002
  0.12530000000000002          1.4905464835464954E-002
  0.12640000000000001          1.3672879897058010E-002
  0.12750000000000003          1.2375516816973686E-002
  0.12860000000000002          1.1025830172002316E-002
  0.12970000000000001          9.6364254131913185E-003
  0.13080000000000003          8.2199349999427795E-003
  0.13190000000000002          6.7889071069657803E-003
  0.13300000000000001          5.3557008504867554E-003
  0.13410000000000000          3.9323950186371803E-003
  0.13520000000000004          2.5306965690106153E-003
  0.13630000000000003          1.1618619319051504E-003
  0.13740000000000002         -1.6337462875526398E-004
  0.13850000000000001         -1.4348634285852313E-003
  0.13960000000000000         -2.6430916041135788E-003
  0.14070000000000005         -3.7792264483869076E-003
  0.14180000000000004         -4.8351525329053402E-003
  0.14290000000000003         -5.8034984394907951E-003
  0.14400000000000002         -6.6776624880731106E-003
  0.14510000000000001         -7.4518295004963875E-003
  0.14620000000000000         -8.1209912896156311E-003
  0.14730000000000004         -8.6809629574418068E-003
  0.14840000000000003         -9.1283973306417465E-003
  0.14950000000000002         -9.4608021900057793E-003
  0.15060000000000001         -9.6765449270606041E-003
  0.15170000000000000         -9.7748646512627602E-003
  0.15280000000000005         -9.7558805719017982E-003
  0.15390000000000004         -9.6206013113260269E-003
  0.15500000000000003         -9.3709295615553856E-003
  0.15610000000000002         -9.0096704661846161E-003
  0.15720000000000001         -8.5405232384800911E-003
  0.15830000000000000         -7.9680727794766426E-003
  0.15940000000000004         -7.2977780364453793E-003
  0.16050000000000003         -6.5359529107809067E-003
  0.16160000000000002         -5.6897383183240891E-003
  0.16270000000000001         -4.7670695930719376E-003
  0.16380000000000000         -3.7766289897263050E-003
  0.16490000000000005         -2.7277951594442129E-003
  0.16600000000000004         -1.6305806348100305E-003
  0.16710000000000003         -4.9556186422705650E-004
  0.16820000000000002          6.6620216239243746E-004
  0.16930000000000001          1.8432617653161287E-003
  0.17040000000000000          3.0238779727369547E-003
  0.17150000000000004          4.1961316019296646E-003
  0.17260000000000003          5.3480379283428192E-003
  0.17370000000000002          6.4676627516746521E-003
  0.17480000000000001          7.5432462617754936E-003
  0.17590000000000000          8.5633303970098495E-003
  0.17700000000000005          9.5168855041265488E-003
  0.17810000000000004          1.0393430478870869E-002
  0.17920000000000003          1.1183148249983788E-002
  0.18030000000000002          1.1876998469233513E-002
  0.18140000000000001          1.2466823682188988E-002
  0.18250000000000000          1.2945446185767651E-002
  0.18360000000000004          1.3306761160492897E-002
  0.18470000000000003          1.3545812107622623E-002
  0.18580000000000002          1.3658847659826279E-002
  0.18690000000000001          1.3643371872603893E-002
  0.18800000000000000          1.3498178683221340E-002
  0.18910000000000005          1.3223369605839252E-002
  0.19020000000000004          1.2820356525480747E-002
  0.19130000000000003          1.2291854247450829E-002
  0.19240000000000002          1.1641846038401127E-002
  0.19350000000000001          1.0875546373426914E-002
  0.19460000000000005          9.9993404000997543E-003
  0.19570000000000004          9.0207271277904510E-003
  0.19680000000000003          7.9482411965727806E-003
  0.19790000000000002          6.7913625389337540E-003
  0.19900000000000001          5.5604176595807076E-003
  0.20010000000000000          4.2664716020226479E-003
  0.20120000000000005          2.9212245717644691E-003
  0.20230000000000004          1.5368987806141376E-003
  0.20340000000000003          1.2612274440471083E-004
  0.20450000000000002         -1.2981961481273174E-003
  0.20560000000000000         -2.7230009436607361E-003
  0.20670000000000005         -4.1352123953402042E-003
  0.20780000000000004         -5.5218520574271679E-003
  0.20890000000000003         -6.8701552227139473E-003
