 -0.12000000000000000          0.0000000000000000
 -0.11889999999999999          0.0000000000000000
 -0.11780000000000000          0.0000000000000000
 -0.11670000000000000          0.0000000000000000
 -0.11559999999999999          0.0000000000000000
 -0.11449999999999999          0.0000000000000000
 -0.11340000000000000          0.0000000000000000
 -0.11230000000000000          0.0000000000000000
 -0.11119999999999999          0.0000000000000000
 -0.11009999999999999          0.0000000000000000
 -0.10900000000000000          0.0000000000000000
 -0.10790000000000000          0.0000000000000000
 -0.10679999999999999          5.1384673732866538E-027
 -0.10569999999999999          6.2462055779206291E-026
 -0.10460000000000000          2.8417271974244593E-025
 -0.10349999999999999          1.6203186969502445E-025
 -0.10239999999999999         -4.5711834940611565E-024
 -0.10130000000000000         -2.5130921717912163E-023
 -0.10020000000000000         -5.8961363633278195E-023
  -9.9099999999999994E-002     4.3023921568120329E-024
  -9.7999999999999990E-002     5.1389706271011395E-022
  -9.6899999999999986E-002     1.8088830467852575E-021
  -9.5799999999999996E-002     2.7187336568763546E-021
  -9.4699999999999993E-002    -2.1368371375458750E-021
  -9.3599999999999989E-002    -2.1780161513771324E-020
  -9.2499999999999999E-002    -5.4481456176935293E-020
  -9.1399999999999995E-002    -5.4085427302804192E-020
  -9.0299999999999991E-002     9.2068136083387129E-020
  -8.9200000000000002E-002     4.8182169497023401E-019
  -8.8099999999999984E-002     9.2193477210643641E-019
  -8.6999999999999994E-002     5.7998259787644239E-019
  -8.5899999999999990E-002    -1.8560576369485354E-018
  -8.4799999999999986E-002    -6.6642976510901437E-018
  -8.3699999999999997E-002    -1.0240314003671721E-017
  -8.2599999999999993E-002    -3.5102315056458475E-018
  -8.1499999999999989E-002     2.3064303489595672E-017
  -8.0399999999999999E-002     6.4290369796862832E-017
  -7.9299999999999995E-002     8.2127355036266399E-017
  -7.8199999999999992E-002     8.7617683634025865E-018
  -7.7100000000000002E-002    -1.9998949486997483E-016
  -7.5999999999999984E-002    -4.6398850194034869E-016
  -7.4899999999999994E-002    -5.0749973740785484E-016
  -7.3799999999999991E-002     4.2294528887057005E-017
  -7.2699999999999987E-002     1.2961401920421342E-015
  -7.1599999999999997E-002     2.6263666839476760E-015
  -7.0499999999999993E-002     2.5399576766247127E-015
  -6.9399999999999989E-002    -5.4115172112755776E-016
  -6.8300000000000000E-002    -6.5398181424566274E-015
  -6.7199999999999996E-002    -1.2058681215566282E-014
  -6.6099999999999992E-002    -1.0757409909687918E-014
  -6.5000000000000002E-002     2.7185081984994197E-015
  -6.3899999999999985E-002     2.6293508657241477E-014
  -6.2799999999999995E-002     4.6086005562988308E-014
  -6.1699999999999991E-002     4.0198747108810551E-014
  -6.0599999999999994E-002    -6.8322710905727516E-015
  -5.9499999999999990E-002    -8.5036619130833546E-014
  -5.8399999999999994E-002    -1.4989398611220395E-013
  -5.7299999999999990E-002    -1.3750243619495978E-013
  -5.6199999999999986E-002    -5.4710112173039435E-015
  -5.5099999999999996E-002     2.1986234989730680E-013
  -5.3999999999999992E-002     4.2392269707612618E-013
  -5.2899999999999989E-002     4.4046756801814635E-013
  -5.1799999999999985E-002     1.4416038621092170E-013
  -5.0699999999999995E-002    -4.3882085465352105E-013
  -4.9599999999999991E-002    -1.0662664327865112E-012
  -4.8499999999999988E-002    -1.3241098755639724E-012
  -4.7399999999999998E-002    -8.0788522573149724E-013
  -4.6299999999999994E-002     5.9419027857721129E-013
  -4.5199999999999990E-002     2.4381653380284307E-012
  -4.4099999999999986E-002     3.6800831479388840E-012
  -4.2999999999999997E-002     3.0460575468210793E-012
  -4.1899999999999993E-002    -1.5974015458910390E-013
  -4.0799999999999989E-002    -5.1379928957262511E-012
  -3.9699999999999985E-002    -9.2529933368168393E-012
  -3.8599999999999995E-002    -8.9580348347495509E-012
  -3.7499999999999992E-002    -2.0421895511463228E-012
  -3.6399999999999988E-002     9.8794869854423872E-012
  -3.5299999999999984E-002     2.0584560098124705E-011
  -3.4199999999999994E-002     2.1746195122407386E-011
  -3.3099999999999991E-002     8.3034178491314670E-012
  -3.1999999999999987E-002    -1.6340019615146417E-011
  -3.0899999999999997E-002    -3.9502501963939451E-011
  -2.9799999999999993E-002    -4.5068594689556818E-011
  -2.8699999999999989E-002    -2.3703664031593519E-011
  -2.7599999999999986E-002     1.8958251635226020E-011
  -2.6499999999999996E-002     6.2557008184693785E-011
  -2.5399999999999992E-002     8.1962471532026626E-011
  -2.4299999999999988E-002     6.1290153507975731E-011
  -2.3199999999999985E-002     3.1671668326155311E-012
  -2.2099999999999995E-002    -7.1899722287049883E-011
  -2.0999999999999991E-002    -1.3373631368995831E-010
  -1.9899999999999987E-002    -1.5180350032562018E-010
  -1.8799999999999983E-002    -1.0253763116363501E-010
  -1.7699999999999994E-002     2.1380177142593659E-011
  -1.6599999999999990E-002     1.9555737584830979E-010
  -1.5499999999999986E-002     3.4950731198080121E-010
  -1.4399999999999996E-002     3.7522715490290182E-010
  -1.3299999999999992E-002     1.7865565971053599E-010
  -1.2199999999999989E-002    -2.3641669177898450E-010
  -1.1099999999999985E-002    -7.0621469783205271E-010
  -9.9999999999999950E-003    -9.3830376801662396E-010
  -8.8999999999999913E-003    -6.6489630468069549E-010
  -7.7999999999999875E-003     1.4695619721116771E-010
  -6.6999999999999837E-003     1.1728387150355957E-009
  -5.5999999999999939E-003     1.8274137758567122E-009
  -4.4999999999999901E-003     1.5821358667622576E-009
  -3.3999999999999864E-003     3.3460817450148284E-010
  -2.2999999999999826E-003    -1.4231664735575578E-009
  -1.1999999999999927E-003    -2.7953501735566988E-009
  -9.9999999999988987E-005    -2.9574660498354888E-009
   1.0000000000000148E-003    -1.6354390064421409E-009
   2.1000000000000185E-003     7.1011269087151163E-010
   3.2000000000000084E-003     3.0972691078545722E-009
   4.3000000000000121E-003     4.4771226725970337E-009
   5.4000000000000159E-003     4.1541734496775007E-009
   6.5000000000000058E-003     2.0017147939199731E-009
   7.6000000000000234E-003    -1.4983386753542050E-009
   8.7000000000000133E-003    -5.2811359729787455E-009
   9.8000000000000032E-003    -7.8068591591318182E-009
   1.0900000000000021E-002    -7.4425074991779638E-009
   1.2000000000000011E-002    -3.2551430440008744E-009
   1.3100000000000001E-002     4.0270444756629331E-009
   1.4200000000000018E-002     1.1573073166459835E-008
   1.5300000000000008E-002     1.5241992556980222E-008
   1.6400000000000026E-002     1.1673776612042275E-008
   1.7500000000000016E-002     7.1034034210271102E-010
   1.8600000000000005E-002    -1.3466008752516245E-008
   1.9700000000000023E-002    -2.3674719074051609E-008
   2.0800000000000013E-002    -2.3320135156268407E-008
   2.1900000000000003E-002    -1.0386902893344541E-008
   2.3000000000000020E-002     1.0575710973625974E-008
   2.4100000000000010E-002     2.9950044222459837E-008
   2.5200000000000000E-002     3.7514116257852947E-008
   2.6300000000000018E-002     2.7615968178906769E-008
   2.7400000000000008E-002     2.3916386648892285E-009
   2.8500000000000025E-002    -2.8554145714565493E-008
   2.9600000000000015E-002    -5.1808651591045418E-008
   3.0700000000000005E-002    -5.5559873146648897E-008
   3.1800000000000023E-002    -3.4693098172056125E-008
   3.2900000000000013E-002     6.2005587331270817E-009
   3.4000000000000002E-002     5.3100972507991173E-008
   3.5100000000000020E-002     8.6601680493458844E-008
   3.6200000000000010E-002     8.9121627411259396E-008
   3.7300000000000028E-002     5.3161631541343013E-008
   3.8400000000000017E-002    -1.2914523672691303E-008
   3.9500000000000007E-002    -8.5215702938512550E-008
   4.0600000000000025E-002    -1.3240968144145882E-007
   4.1700000000000015E-002    -1.2944201444042847E-007
   4.2800000000000005E-002    -7.1068619433845015E-008
   4.3900000000000022E-002     2.1967402119571489E-008
   4.5000000000000012E-002     1.0892471635770562E-007
   4.6100000000000002E-002     1.4654344226983085E-007
   4.7200000000000020E-002     1.1115589870769327E-007
   4.8300000000000010E-002     1.4826339267415278E-008
   4.9400000000000027E-002    -9.4048942855806672E-008
   5.0500000000000017E-002    -1.4912890833329584E-007
   5.1600000000000007E-002    -9.7892765893448086E-008
   5.2700000000000025E-002     6.6773480966730858E-008
   5.3800000000000014E-002     2.9122600153641542E-007
   5.4900000000000004E-002     4.7267766944969480E-007
   5.6000000000000022E-002     4.9676555136102252E-007
   5.7100000000000012E-002     2.8718767453028704E-007
   5.8200000000000002E-002    -1.5371115580364858E-007
   5.9300000000000019E-002    -7.3176909154426539E-007
   6.0400000000000009E-002    -1.2819003814001917E-006
   6.1500000000000027E-002    -1.6151599311342579E-006
   6.2600000000000017E-002    -1.5742393770779017E-006
   6.3700000000000007E-002    -1.0787105111376150E-006
   6.4800000000000024E-002    -1.4794977687415667E-007
   6.5900000000000014E-002     1.1012054983439157E-006
   6.7000000000000004E-002     2.4779167233646149E-006
   6.8100000000000022E-002     3.7537706703005824E-006
   6.9200000000000012E-002     4.7014709707582369E-006
   7.0300000000000029E-002     5.1230385906819720E-006
   7.1400000000000019E-002     4.8552642510912847E-006
   7.2500000000000009E-002     3.7468237223947654E-006
   7.3600000000000027E-002     1.6148924260050990E-006
   7.4700000000000016E-002    -1.7961777984965011E-006
   7.5800000000000006E-002    -6.8255885707912967E-006
   7.6900000000000024E-002    -1.3858126294508111E-005
   7.8000000000000014E-002    -2.3245038391905837E-005
   7.9100000000000004E-002    -3.5220007703173906E-005
   8.0200000000000021E-002    -4.9861897423397750E-005
   8.1300000000000011E-002    -6.7146116634830832E-005
   8.2400000000000029E-002    -8.7092033936642110E-005
   8.3500000000000019E-002    -1.0996957280440256E-004
   8.4600000000000009E-002    -1.3649504398927093E-004
   8.5700000000000026E-002    -1.6794355178717524E-004
   8.6800000000000016E-002    -2.0613741071429104E-004
   8.7900000000000006E-002    -2.5332544464617968E-004
   8.9000000000000024E-002    -3.1202237005345523E-004
   9.0100000000000013E-002    -3.8490165024995804E-004
   9.1200000000000003E-002    -4.7481374349445105E-004
   9.2300000000000021E-002    -5.8494607219472528E-004
   9.3400000000000011E-002    -7.1907287929207087E-004
   9.4500000000000028E-002    -8.8180293096229434E-004
   9.5600000000000018E-002    -1.0787468636408448E-003
   9.6700000000000008E-002    -1.3165809214115143E-003
   9.7800000000000026E-002    -1.6030413098633289E-003
   9.8900000000000016E-002    -1.9469275139272213E-003
  0.10000000000000001         -2.3581790737807751E-003
  0.10110000000000002         -2.8480463661253452E-003
  0.10220000000000001         -3.4293259959667921E-003
  0.10330000000000003         -4.1166190057992935E-003
  0.10440000000000002         -4.9265781417489052E-003
  0.10550000000000001         -5.8781392872333527E-003
  0.10660000000000003         -6.9927498698234558E-003
  0.10770000000000002         -8.2945823669433594E-003
  0.10880000000000001         -9.8107038065791130E-003
  0.10990000000000003         -1.1571166105568409E-002
  0.11100000000000002         -1.3608986511826515E-002
  0.11210000000000001         -1.5960048884153366E-002
  0.11320000000000002         -1.8662966787815094E-002
  0.11430000000000001         -2.1759031340479851E-002
  0.11540000000000003         -2.5292253121733665E-002
  0.11650000000000002         -2.9309462755918503E-002
  0.11760000000000001         -3.3860385417938232E-002
  0.11870000000000003         -3.8997482508420944E-002
  0.11980000000000002         -4.4775530695915222E-002
  0.12090000000000001         -5.1250841468572617E-002
  0.12200000000000003         -5.8480273932218552E-002
  0.12310000000000001         -6.6520102322101593E-002
  0.12420000000000003         -7.5424961745738983E-002
  0.12530000000000002         -8.5246898233890533E-002
  0.12640000000000001         -9.6034243702888489E-002
  0.12750000000000003        -0.10783047974109650
  0.12860000000000002        -0.12067281454801559
  0.12970000000000001        -0.13459017872810364
  0.13080000000000003        -0.14960104227066040
  0.13190000000000002        -0.16571144759654999
  0.13300000000000001        -0.18291257321834564
  0.13410000000000000        -0.20117886364459991
  0.13520000000000004        -0.22046616673469543
  0.13630000000000003        -0.24070911109447479
  0.13740000000000002        -0.26181879639625549
  0.13850000000000001        -0.28368112444877625
  0.13960000000000000        -0.30615499615669250
  0.14070000000000005        -0.32907056808471680
  0.14180000000000004        -0.35222840309143066
  0.14290000000000003        -0.37539899349212646
  0.14400000000000002        -0.39832267165184021
  0.14510000000000001        -0.42070972919464111
  0.14620000000000000        -0.44224089384078979
  0.14730000000000004        -0.46256822347640991
  0.14840000000000003        -0.48131689429283142
  0.14950000000000002        -0.49808776378631592
  0.15060000000000001        -0.51246201992034912
  0.15170000000000000        -0.52400779724121094
  0.15280000000000005        -0.53228551149368286
  0.15390000000000004        -0.53685319423675537
  0.15500000000000003        -0.53727251291275024
  0.15610000000000002        -0.53311574459075928
  0.15720000000000001        -0.52397239208221436
  0.15830000000000000        -0.50945997238159180
  0.15940000000000004        -0.48923566937446594
  0.16050000000000003        -0.46300300955772400
  0.16160000000000002        -0.43051981925964355
  0.16270000000000001        -0.39160692691802979
  0.16380000000000000        -0.34615883231163025
  0.16490000000000005        -0.29415151476860046
  0.16600000000000004        -0.23564715683460236
  0.16710000000000003        -0.17079938948154449
  0.16820000000000002         -9.9858470261096954E-002
  0.16930000000000001         -2.3175960406661034E-002
  0.17040000000000000          5.8792736381292343E-002
  0.17150000000000004         0.14548954367637634
  0.17260000000000003         0.23625659942626953
  0.17370000000000002         0.33034148812294006
  0.17480000000000001         0.42690426111221313
  0.17590000000000000         0.52502495050430298
  0.17700000000000005         0.62371021509170532
  0.17810000000000004         0.72190505266189575
  0.17920000000000003         0.81850910186767578
  0.18030000000000002         0.91239428520202637
  0.18140000000000001          1.0024225711822510
  0.18250000000000000          1.0874589681625366
  0.18360000000000004          1.1663882732391357
  0.18470000000000003          1.2381334304809570
  0.18580000000000002          1.3016755580902100
  0.18690000000000001          1.3560749292373657
  0.18800000000000000          1.4004878997802734
  0.18910000000000005          1.4341803789138794
  0.19020000000000004          1.4565398693084717
  0.19130000000000003          1.4670891761779785
  0.19240000000000002          1.4654988050460815
  0.19350000000000001          1.4515963792800903
  0.19460000000000005          1.4253710508346558
  0.19570000000000004          1.3869735002517700
  0.19680000000000003          1.3367135524749756
  0.19790000000000002          1.2750571966171265
  0.19900000000000001          1.2026231288909912
  0.20010000000000000          1.1201760768890381
  0.20120000000000005          1.0286134481430054
  0.20230000000000004         0.92894870042800903
  0.20340000000000003         0.82229411602020264
  0.20450000000000002         0.70984452962875366
  0.20560000000000000         0.59286290407180786
  0.20670000000000005         0.47265848517417908
  0.20780000000000004         0.35056468844413757
  0.20890000000000003         0.22791597247123718
