 -0.12000000000000000          0.0000000000000000
 -0.11889999999999999          0.0000000000000000
 -0.11780000000000000          0.0000000000000000
 -0.11670000000000000          0.0000000000000000
 -0.11559999999999999          0.0000000000000000
 -0.11449999999999999          0.0000000000000000
 -0.11340000000000000          0.0000000000000000
 -0.11230000000000000          0.0000000000000000
 -0.11119999999999999          0.0000000000000000
 -0.11009999999999999          0.0000000000000000
 -0.10900000000000000         -1.1114909168592805E-031
 -0.10790000000000000          2.1932924669393906E-030
 -0.10679999999999999         -2.2785402727028312E-028
 -0.10569999999999999          1.4630349692955727E-028
 -0.10460000000000000         -1.8609022438918376E-028
 -0.10349999999999999         -4.1318944167714512E-026
 -0.10239999999999999         -1.1207944689129653E-025
 -0.10130000000000000          4.3649365006444151E-025
 -0.10020000000000000          1.9935587925766069E-024
  -9.9099999999999994E-002    -2.6178360972672855E-024
  -9.7999999999999990E-002    -2.6409499584485327E-023
  -9.6899999999999986E-002    -2.0534284443452693E-023
  -9.5799999999999996E-002     2.0061415657769890E-022
  -9.4699999999999993E-002     5.6097633202080187E-022
  -9.3599999999999989E-002    -3.9110946179549579E-022
  -9.2499999999999999E-002    -4.6847458810265252E-021
  -9.1399999999999995E-002    -7.0070114260197518E-021
  -9.0299999999999991E-002     1.3892393374664397E-020
  -8.9200000000000002E-002     6.7904051353347917E-020
  -8.8099999999999984E-002     6.4398692561895466E-020
  -8.6999999999999994E-002    -2.1124979215549347E-019
  -8.5899999999999990E-002    -7.3585170451862446E-019
  -8.4799999999999986E-002    -5.2002803009071610E-019
  -8.3699999999999997E-002     2.1632545252724069E-018
  -8.2599999999999993E-002     6.4883683289189967E-018
  -8.1499999999999989E-002     4.2069119688594468E-018
  -8.0399999999999999E-002    -1.6727499464314767E-017
  -7.9299999999999995E-002    -4.8479371562005794E-017
  -7.8199999999999992E-002    -3.4502907724558662E-017
  -7.7100000000000002E-002     1.0157308745307740E-016
  -7.5999999999999984E-002     3.1213706736802802E-016
  -7.4899999999999994E-002     2.6674793338667948E-016
  -7.3799999999999991E-002    -4.8219166349331723E-016
  -7.2699999999999987E-002    -1.7380283867787566E-015
  -7.1599999999999997E-002    -1.8279614746787715E-015
  -7.0499999999999993E-002     1.6644859158037044E-015
  -6.9399999999999989E-002     8.3304462164686920E-015
  -6.8300000000000000E-002     1.0810697599432633E-014
  -6.7199999999999996E-002    -2.7693818443444602E-015
  -6.6099999999999992E-002    -3.3923537400394957E-014
  -6.5000000000000002E-002    -5.4743817308076578E-014
  -6.3899999999999985E-002    -1.2781188461112938E-014
  -6.2799999999999995E-002     1.1402218145356580E-013
  -6.1699999999999991E-002     2.3662148629366442E-013
  -6.0599999999999994E-002     1.4912166824716105E-013
  -5.9499999999999990E-002    -2.9370521856600385E-013
  -5.8399999999999994E-002    -8.6740456397421672E-013
  -5.7299999999999990E-002    -8.6200512873502166E-013
  -5.6199999999999986E-002     4.2904243525987429E-013
  -5.5099999999999996E-002     2.6506260294295592E-012
  -5.3999999999999992E-002     3.6878048358113258E-012
  -5.2899999999999989E-002     7.4354422358730021E-013
  -5.1799999999999985E-002    -6.4555669837540464E-012
  -5.0699999999999995E-002    -1.2633375248705114E-011
  -4.9599999999999991E-002    -8.4886594281519123E-012
  -4.8499999999999988E-002     1.0849611140062443E-011
  -4.7399999999999998E-002     3.5163889161582418E-011
  -4.6299999999999994E-002     3.8291193132922174E-011
  -4.5199999999999990E-002    -3.0220281572318486E-012
  -4.4099999999999986E-002    -7.7433504053203706E-011
  -4.2999999999999997E-002    -1.2345997835172540E-010
  -4.1899999999999993E-002    -6.2617196150416277E-011
  -4.0799999999999989E-002     1.2030601515000683E-010
  -3.9699999999999985E-002     3.0988778210172541E-010
  -3.8599999999999995E-002     2.9533842038631519E-010
  -3.7499999999999992E-002    -5.7803622999230697E-011
  -3.6399999999999988E-002    -6.0105775911978299E-010
  -3.5299999999999984E-002    -8.7311674557000174E-010
  -3.4199999999999994E-002    -3.9859307521261655E-010
  -3.3099999999999991E-002     8.0370671229346158E-010
  -3.1999999999999987E-002     1.9298236342280006E-009
  -3.0899999999999997E-002     1.7656995865422687E-009
  -2.9799999999999993E-002    -2.8062760448754887E-010
  -2.8699999999999989E-002    -3.2093194768378908E-009
  -2.7599999999999986E-002    -4.5749724009169768E-009
  -2.6499999999999996E-002    -2.1966322094613133E-009
  -2.5399999999999992E-002     3.5144605003978313E-009
  -2.4299999999999988E-002     8.6703781931873891E-009
  -2.3199999999999985E-002     8.0612823083470175E-009
  -2.2099999999999995E-002    -3.7403116714962437E-010
  -2.0999999999999991E-002    -1.2140164429297329E-008
  -1.9899999999999987E-002    -1.7659967710415003E-008
  -1.8799999999999983E-002    -9.2724388167653160E-009
  -1.7699999999999994E-002     1.0751427304001027E-008
  -1.6599999999999990E-002     2.8481546010539205E-008
  -1.5499999999999986E-002     2.6963011379166346E-008
  -1.4399999999999996E-002     8.6778212393667786E-010
  -1.3299999999999992E-002    -3.4511398183667552E-008
  -1.2199999999999989E-002    -5.0358703873598643E-008
  -1.1099999999999985E-002    -2.6336921976621852E-008
  -9.9999999999999950E-003     2.8105439753289829E-008
  -8.8999999999999913E-003     7.3124873267715884E-008
  -7.7999999999999875E-003     6.5588579900577315E-008
  -6.6999999999999837E-003    -2.6645756712184721E-009
  -5.5999999999999939E-003    -8.7252075786636851E-008
  -4.4999999999999901E-003    -1.1648193520841232E-007
  -3.3999999999999864E-003    -4.8569038568757605E-008
  -2.2999999999999826E-003     8.2260854128435312E-008
  -1.1999999999999927E-003     1.7562338427978830E-007
  -9.9999999999988987E-005     1.3704172374673362E-007
   1.0000000000000148E-003    -3.5946037257872376E-008
   2.1000000000000185E-003    -2.2691877177294373E-007
   3.2000000000000084E-003    -2.7206186814510147E-007
   4.3000000000000121E-003    -9.1704272620063421E-008
   5.4000000000000159E-003     2.1867131749786495E-007
   6.5000000000000058E-003     4.2708848013717216E-007
   7.6000000000000234E-003     3.3061874660234025E-007
   8.7000000000000133E-003    -6.5197866661037551E-008
   9.8000000000000032E-003    -5.0305482091062004E-007
   1.0900000000000021E-002    -6.3310943687611143E-007
   1.2000000000000011E-002    -2.8355097470011970E-007
   1.3100000000000001E-002     3.6112365364715515E-007
   1.4200000000000018E-002     8.4099292507744394E-007
   1.5300000000000008E-002     7.4385684456501622E-007
   1.6400000000000026E-002     4.9309896610338910E-008
   1.7500000000000016E-002    -7.8582604601251660E-007
   1.8600000000000005E-002    -1.1172328413522337E-006
   1.9700000000000023E-002    -6.0584767425098107E-007
   2.0800000000000013E-002     4.5598122255796625E-007
   2.1900000000000003E-002     1.2814972478736308E-006
   2.3000000000000020E-002     1.1558305459402618E-006
   2.4100000000000010E-002     3.7971574329276336E-008
   2.5200000000000000E-002    -1.2924316479256959E-006
   2.6300000000000018E-002    -1.7431518699595472E-006
   2.7400000000000008E-002    -7.6546643867914099E-007
   2.8500000000000025E-002     1.0897996389758191E-006
   2.9600000000000015E-002     2.4294358809129335E-006
   3.0700000000000005E-002     2.0190439045109088E-006
   3.1800000000000023E-002    -1.6721330098334874E-007
   3.2900000000000013E-002    -2.7042576675739838E-006
   3.4000000000000002E-002    -3.6190972423355561E-006
   3.5100000000000020E-002    -1.8931642671304871E-006
   3.6200000000000010E-002     1.5637309616067796E-006
   3.7300000000000028E-002     4.3444520088087302E-006
   3.8400000000000017E-002     4.2450405999261420E-006
   3.9500000000000007E-002     1.0397910727988346E-006
   4.0600000000000025E-002    -3.1018880690680817E-006
   4.1700000000000015E-002    -5.0819048738048878E-006
   4.2800000000000005E-002    -3.2717907743062824E-006
   4.3900000000000022E-002     1.0127887435373850E-006
   4.5000000000000012E-002     4.3090913095511496E-006
   4.6100000000000002E-002     3.7136192077014130E-006
   4.7200000000000020E-002    -5.2799111927015474E-007
   4.8300000000000010E-002    -4.7846788220340386E-006
   4.9400000000000027E-002    -4.7451339924009517E-006
   5.0500000000000017E-002     7.7005569210086833E-007
   5.1600000000000007E-002     8.0052595876622945E-006
   5.2700000000000025E-002     1.0456048585183453E-005
   5.3800000000000014E-002     4.0008603718888480E-006
   5.4900000000000004E-002    -8.7869248091010377E-006
   5.6000000000000022E-002    -1.9006862203241326E-005
   5.7100000000000012E-002    -1.7243975889869034E-005
   5.8200000000000002E-002    -1.2492623682192061E-006
   5.9300000000000019E-002     2.0373259758343920E-005
   6.0400000000000009E-002     3.2336542062694207E-005
   6.1500000000000027E-002     2.3086839064490050E-005
   6.2600000000000017E-002    -5.3945941544952802E-006
   6.3700000000000007E-002    -3.6136301787337288E-005
   6.4800000000000024E-002    -4.6843731979606673E-005
   6.5900000000000014E-002    -2.5496232410660014E-005
   6.7000000000000004E-002     1.8730877854977734E-005
   6.8100000000000022E-002     5.8174613513983786E-005
   6.9200000000000012E-002     6.3393199525307864E-005
   7.0300000000000029E-002     2.4043833036557771E-005
   7.1400000000000019E-002    -4.0449634980177507E-005
   7.2500000000000009E-002    -8.9604960521683097E-005
   7.3600000000000027E-002    -8.6639331129845232E-005
   7.4700000000000016E-002    -2.4223807486123405E-005
   7.5800000000000006E-002     6.6355714807286859E-005
   7.6900000000000024E-002     1.3079658674541861E-004
   7.8000000000000014E-002     1.2431295181158930E-004
   7.9100000000000004E-002     4.1208764741895720E-005
   8.0200000000000021E-002    -7.7992946899030358E-005
   8.1300000000000011E-002    -1.6790455265436321E-004
   8.2400000000000029E-002    -1.7602188745513558E-004
   8.3500000000000019E-002    -9.3853661383036524E-005
   8.4600000000000009E-002     3.7862428143853322E-005
   8.5700000000000026E-002     1.5299332153517753E-004
   8.6800000000000016E-002     1.9789786892943084E-004
   8.7900000000000006E-002     1.5999832248780876E-004
   8.9000000000000024E-002     7.0228321419563144E-005
   9.0100000000000013E-002    -2.0589453924912959E-005
   9.1200000000000003E-002    -7.5245021434966475E-005
   9.2300000000000021E-002    -9.1951129434164613E-005
   9.3400000000000011E-002    -1.0098294296767563E-004
   9.4500000000000028E-002    -1.3855303404852748E-004
   9.5600000000000018E-002    -2.1421704150270671E-004
   9.6700000000000008E-002    -2.9226968763396144E-004
   9.7800000000000026E-002    -3.0042856815271080E-004
   9.8900000000000016E-002    -1.6487497487105429E-004
  0.10000000000000001          1.4348425611387938E-004
  0.10110000000000002          5.7449797168374062E-004
  0.10220000000000001          9.9680828861892223E-004
  0.10330000000000003          1.2368333991616964E-003
  0.10440000000000002          1.1479734675958753E-003
  0.10550000000000001          6.8089319393038750E-004
  0.10660000000000003         -8.1947822764050215E-005
  0.10770000000000002         -9.5356896053999662E-004
  0.10880000000000001         -1.7282845219597220E-003
  0.10990000000000003         -2.2877100855112076E-003
  0.11100000000000002         -2.6680841110646725E-003
  0.11210000000000001         -3.0425661243498325E-003
  0.11320000000000002         -3.6179090384393930E-003
  0.11430000000000001         -4.5016151852905750E-003
  0.11540000000000003         -5.6267650797963142E-003
  0.11650000000000002         -6.7990799434483051E-003
  0.11760000000000001         -7.8569073230028152E-003
  0.11870000000000003         -8.8524175807833672E-003
  0.11980000000000002         -1.0125709697604179E-002
  0.12090000000000001         -1.2192086316645145E-002
  0.12200000000000003         -1.5478665940463543E-002
  0.12310000000000001         -2.0064016804099083E-002
  0.12420000000000003         -2.5607733055949211E-002
  0.12530000000000002         -3.1566813588142395E-002
  0.12640000000000001         -3.7619706243276596E-002
  0.12750000000000003         -4.4058680534362793E-002
  0.12860000000000002         -5.1887117326259613E-002
  0.12970000000000001         -6.2499754130840302E-002
  0.13080000000000003         -7.7078923583030701E-002
  0.13190000000000002         -9.6035897731781006E-002
  0.13300000000000001        -0.11885976791381836
  0.13410000000000000        -0.14451102912425995
  0.13520000000000004        -0.17220596969127655
  0.13630000000000003        -0.20215472579002380
  0.13740000000000002        -0.23583170771598816
  0.13850000000000001        -0.27559030055999756
  0.13960000000000000        -0.32381916046142578
  0.14070000000000005        -0.38212934136390686
  0.14180000000000004        -0.45099762082099915
  0.14290000000000003        -0.53011125326156616
  0.14400000000000002        -0.61914831399917603
  0.14510000000000001        -0.71852815151214600
  0.14620000000000000        -0.82969617843627930
  0.14730000000000004        -0.95479106903076172
  0.14840000000000003         -1.0959116220474243
  0.14950000000000002         -1.2545243501663208
  0.15060000000000001         -1.4313046932220459
  0.15170000000000000         -1.6265678405761719
  0.15280000000000005         -1.8408831357955933
  0.15390000000000004         -2.0754413604736328
  0.15500000000000003         -2.3318891525268555
  0.15610000000000002         -2.6116597652435303
  0.15720000000000001         -2.9152357578277588
  0.15830000000000000         -3.2417042255401611
  0.15940000000000004         -3.5891070365905762
  0.16050000000000003         -3.9550957679748535
  0.16160000000000002         -4.3375644683837891
  0.16270000000000001         -4.7350010871887207
  0.16380000000000000         -5.1458215713500977
  0.16490000000000005         -5.5676860809326172
  0.16600000000000004         -5.9963860511779785
  0.16710000000000003         -6.4258770942687988
  0.16820000000000002         -6.8484768867492676
  0.16930000000000001         -7.2558770179748535
  0.17040000000000000         -7.6402544975280762
  0.17150000000000004         -7.9942469596862793
  0.17260000000000003         -8.3104286193847656
  0.17370000000000002         -8.5801506042480469
  0.17480000000000001         -8.7922878265380859
  0.17590000000000000         -8.9328250885009766
  0.17700000000000005         -8.9871912002563477
  0.17810000000000004         -8.9403390884399414
  0.17920000000000003         -8.7796134948730469
  0.18030000000000002         -8.4940948486328125
  0.18140000000000001         -8.0745992660522461
  0.18250000000000000         -7.5137915611267090
  0.18360000000000004         -6.8035473823547363
  0.18470000000000003         -5.9342360496520996
  0.18580000000000002         -4.8973031044006348
  0.18690000000000001         -3.6841995716094971
  0.18800000000000000         -2.2884960174560547
  0.18910000000000005        -0.70976287126541138
  0.19020000000000004          1.0485553741455078
  0.19130000000000003          2.9779698848724365
  0.19240000000000002          5.0651993751525879
  0.19350000000000001          7.2968506813049316
  0.19460000000000005          9.6570949554443359
  0.19570000000000004          12.126627922058105
  0.19680000000000003          14.682916641235352
  0.19790000000000002          17.298635482788086
  0.19900000000000001          19.943338394165039
  0.20010000000000000          22.583889007568359
  0.20120000000000005          25.184574127197266
  0.20230000000000004          27.706090927124023
  0.20340000000000003          30.106477737426758
  0.20450000000000002          32.343963623046875
  0.20560000000000000          34.376186370849609
  0.20670000000000005          36.159511566162109
  0.20780000000000004          37.652496337890625
  0.20890000000000003          38.815200805664062
