 -0.12000000000000000          0.0000000000000000
 -0.11889999999999999          0.0000000000000000
 -0.11780000000000000          0.0000000000000000
 -0.11670000000000000          0.0000000000000000
 -0.11559999999999999          0.0000000000000000
 -0.11449999999999999          0.0000000000000000
 -0.11340000000000000          0.0000000000000000
 -0.11230000000000000          0.0000000000000000
 -0.11119999999999999          0.0000000000000000
 -0.11009999999999999          0.0000000000000000
 -0.10900000000000000          0.0000000000000000
 -0.10790000000000000          0.0000000000000000
 -0.10679999999999999          9.3426682382887906E-024
 -0.10569999999999999          9.4882037667433857E-023
 -0.10460000000000000          3.0822827672676781E-022
 -0.10349999999999999         -5.3030254226122669E-022
 -0.10239999999999999         -8.0755437927114328E-021
 -0.10130000000000000         -2.9305797412403351E-020
 -0.10020000000000000         -3.2204092875947110E-020
  -9.9099999999999994E-002     1.4722910174648913E-019
  -9.7999999999999990E-002     7.7930665572212036E-019
  -9.6899999999999986E-002     1.5752132753745314E-018
  -9.5799999999999996E-002     7.9060662789853949E-020
  -9.4699999999999993E-002    -8.9073711763660081E-018
  -9.3599999999999989E-002    -2.6807762291263602E-017
  -9.2499999999999999E-002    -3.2649136414823223E-017
  -9.1399999999999995E-002     3.3369187211883283E-017
  -9.0299999999999991E-002     2.3236456318680208E-016
  -8.9200000000000002E-002     4.7627831473029815E-016
  -8.8099999999999984E-002     3.2392736894711386E-016
  -8.6999999999999994E-002    -9.4565849901727568E-016
  -8.5899999999999990E-002    -3.4835055812956674E-015
  -8.4799999999999986E-002    -5.2587485723702785E-015
  -8.3699999999999997E-002    -1.2430993065224252E-015
  -8.2599999999999993E-002     1.3479612865903261E-014
  -8.1499999999999989E-002     3.4837723119707578E-014
  -8.0399999999999999E-002     4.0118763481667222E-014
  -7.9299999999999995E-002    -7.6878785523521072E-015
  -7.8199999999999992E-002    -1.2570409394386389E-013
  -7.7100000000000002E-002    -2.5384365833283629E-013
  -7.5999999999999984E-002    -2.2615457141543505E-013
  -7.4899999999999994E-002     1.4704322557745203E-013
  -7.3799999999999991E-002     8.5258270712471051E-013
  -7.2699999999999987E-002     1.4271366206852765E-012
  -7.1599999999999997E-002     9.9145691656588042E-013
  -7.0499999999999993E-002    -1.1485643165720649E-012
  -6.9399999999999989E-002    -4.4534527975093052E-012
  -6.8300000000000000E-002    -6.4532129639971458E-012
  -6.7199999999999996E-002    -3.5810835633670601E-012
  -6.6099999999999992E-002     5.9470301946862314E-012
  -6.5000000000000002E-002     1.8554638728240924E-011
  -6.3899999999999985E-002     2.4308997523259102E-011
  -6.2799999999999995E-002     1.1677360467476916E-011
  -6.1699999999999991E-002    -2.2381469941268328E-011
  -6.0599999999999994E-002    -6.3129473870660036E-011
  -5.9499999999999990E-002    -7.9060251401141812E-011
  -5.8399999999999994E-002    -3.8862229406744220E-011
  -5.7299999999999990E-002     6.1392328720710765E-011
  -5.6199999999999986E-002     1.7866480517270134E-010
  -5.5099999999999996E-002     2.3103223500964276E-010
  -5.3999999999999992E-002     1.3998659176284178E-010
  -5.2899999999999989E-002    -1.0990500870500242E-010
  -5.1799999999999985E-002    -4.2883530060322528E-010
  -5.0699999999999995E-002    -6.3113059223240953E-010
  -4.9599999999999991E-002    -5.0967968734383362E-010
  -4.8499999999999988E-002     4.0873467804791730E-011
  -4.7399999999999998E-002     8.9771684530504103E-010
  -4.6299999999999994E-002     1.6515113721027319E-009
  -4.5199999999999990E-002     1.7011706487934930E-009
  -4.4099999999999986E-002     5.5686172339974860E-010
  -4.2999999999999997E-002    -1.7096358773116549E-009
  -4.1899999999999993E-002    -4.1190872934748768E-009
  -4.0799999999999989E-002    -4.9322812500918189E-009
  -3.9699999999999985E-002    -2.5495370259420724E-009
  -3.8599999999999995E-002     3.0858249289167361E-009
  -3.7499999999999992E-002     9.4884393675442880E-009
  -3.6399999999999988E-002     1.2187335585167602E-008
  -3.5299999999999984E-002     7.2764345659948049E-009
  -3.4199999999999994E-002    -5.1643680443191897E-009
  -3.3099999999999991E-002    -1.9277043961096751E-008
  -3.1999999999999987E-002    -2.5529207192676040E-008
  -3.0899999999999997E-002    -1.6584399631369706E-008
  -2.9799999999999993E-002     6.4642273756021496E-009
  -2.8699999999999989E-002     3.2381098691303123E-008
  -2.7599999999999986E-002     4.5186020258825010E-008
  -2.6499999999999996E-002     3.4084440159176665E-008
  -2.5399999999999992E-002     1.1982205228022735E-009
  -2.4299999999999988E-002    -3.8784250477874593E-008
  -2.3199999999999985E-002    -6.6893910855014838E-008
  -2.2099999999999995E-002    -6.9591344242780906E-008
  -2.0999999999999991E-002    -4.2838831149083489E-008
  -1.9899999999999987E-002     9.9894021943214284E-009
  -1.8799999999999983E-002     7.9584900447571272E-008
  -1.7699999999999994E-002     1.4572020745617920E-007
  -1.6599999999999990E-002     1.7096560611662426E-007
  -1.5499999999999986E-002     1.0894334678823725E-007
  -1.4399999999999996E-002    -6.2180021132007823E-008
  -1.3299999999999992E-002    -2.9522271915993770E-007
  -1.2199999999999989E-002    -4.5945429860694276E-007
  -1.1099999999999985E-002    -3.9472388380090706E-007
  -9.9999999999999950E-003    -2.7256234602646146E-008
  -8.8999999999999913E-003     5.2436064379435265E-007
  -7.7999999999999875E-003     9.5173481895471923E-007
  -6.6999999999999837E-003     9.1350619868535432E-007
  -5.5999999999999939E-003     2.7663031687552575E-007
  -4.4999999999999901E-003    -7.2259018679687870E-007
  -3.3999999999999864E-003    -1.5456419077963801E-006
  -2.2999999999999826E-003    -1.6503120150446193E-006
  -1.1999999999999927E-003    -8.4456769400276244E-007
  -9.9999999999988987E-005     5.4981148878141539E-007
   1.0000000000000148E-003     1.8538739823270589E-006
   2.1000000000000185E-003     2.4107655463012634E-006
   3.2000000000000084E-003     1.9295187030365923E-006
   4.3000000000000121E-003     5.7930640195991145E-007
   5.4000000000000159E-003    -1.1664869816740975E-006
   6.5000000000000058E-003    -2.7470739496493479E-006
   7.6000000000000234E-003    -3.6166595691611292E-006
   8.7000000000000133E-003    -3.2611537790216971E-006
   9.8000000000000032E-003    -1.3310695976542775E-006
   1.0900000000000021E-002     1.9935271211579675E-006
   1.2000000000000011E-002     5.6198628044512589E-006
   1.3100000000000001E-002     7.6204782999411691E-006
   1.4200000000000018E-002     6.0995739659119863E-006
   1.5300000000000008E-002     5.7118944596368237E-007
   1.6400000000000026E-002    -7.0588544076599646E-006
   1.7500000000000016E-002    -1.2874666026618797E-005
   1.8600000000000005E-002    -1.2900514775537886E-005
   1.9700000000000023E-002    -5.6607764236105140E-006
   2.0800000000000013E-002     6.3054753809410613E-006
   2.1900000000000003E-002     1.7209491488756612E-005
   2.3000000000000020E-002     2.0904351913486607E-005
   2.4100000000000010E-002     1.4321712114906404E-005
   2.5200000000000000E-002    -5.6885431831688038E-007
   2.6300000000000018E-002    -1.7427779312129132E-005
   2.7400000000000008E-002    -2.8434638807084411E-005
   2.8500000000000025E-002    -2.7830423277919181E-005
   2.9600000000000015E-002    -1.4450497474172153E-005
   3.0700000000000005E-002     7.6300930231809616E-006
   3.1800000000000023E-002     3.0309496651170775E-005
   3.2900000000000013E-002     4.4042608351446688E-005
   3.4000000000000002E-002     4.1230869101127610E-005
   3.5100000000000020E-002     1.9679513570736162E-005
   3.6200000000000010E-002    -1.5097789400897454E-005
   3.7300000000000028E-002    -5.0284019380342215E-005
   3.8400000000000017E-002    -6.9854446337558329E-005
   3.9500000000000007E-002    -6.1602251662407070E-005
   4.0600000000000025E-002    -2.4204986402764916E-005
   4.1700000000000015E-002     2.9600758352898993E-005
   4.2800000000000005E-002     7.6532684033736587E-005
   4.3900000000000022E-002     9.2623718956019729E-005
   4.5000000000000012E-002     6.5480497141834348E-005
   4.6100000000000002E-002     2.9171833375585265E-006
   4.7200000000000020E-002    -6.7258166382089257E-005
   4.8300000000000010E-002    -1.0788648796733469E-004
   4.9400000000000027E-002    -9.0068577264901251E-005
   5.0500000000000017E-002    -1.0076825674332213E-005
   5.1600000000000007E-002     1.0323343303753063E-004
   5.2700000000000025E-002     1.9615974451880902E-004
   5.3800000000000014E-002     2.1193576685618609E-004
   5.4900000000000004E-002     1.1797633487731218E-004
   5.6000000000000022E-002    -7.4180141382385045E-005
   5.7100000000000012E-002    -3.0687052640132606E-004
   5.8200000000000002E-002    -4.9476372078061104E-004
   5.9300000000000019E-002    -5.5625074310228229E-004
   6.0400000000000009E-002    -4.4398813042789698E-004
   6.1500000000000027E-002    -1.6193839837796986E-004
   6.2600000000000017E-002     2.3633950331714004E-004
   6.3700000000000007E-002     6.6462205722928047E-004
   6.4800000000000024E-002     1.0276702232658863E-003
   6.5900000000000014E-002     1.2435211101546884E-003
   6.7000000000000004E-002     1.2595900334417820E-003
   6.8100000000000022E-002     1.0601442772895098E-003
   6.9200000000000012E-002     6.6294730640947819E-004
   7.0300000000000029E-002     1.0353968536946923E-004
   7.1400000000000019E-002    -5.9040193445980549E-004
   7.2500000000000009E-002    -1.4249447267502546E-003
   7.3600000000000027E-002    -2.4512941017746925E-003
   7.4700000000000016E-002    -3.7506518419831991E-003
   7.5800000000000006E-002    -5.3937314078211784E-003
   7.6900000000000024E-002    -7.3926998302340508E-003
   7.8000000000000014E-002    -9.6744149923324585E-003
   7.9100000000000004E-002    -1.2098256498575211E-002
   8.0200000000000021E-002    -1.4523358084261417E-002
   8.1300000000000011E-002    -1.6902493312954903E-002
   8.2400000000000029E-002    -1.9362809136509895E-002
   8.3500000000000019E-002    -2.2232722491025925E-002
   8.4600000000000009E-002    -2.5995403528213501E-002
   8.5700000000000026E-002    -3.1183708459138870E-002
   8.6800000000000016E-002    -3.8259681314229965E-002
   8.7900000000000006E-002    -4.7536719590425491E-002
   8.9000000000000024E-002    -5.9184990823268890E-002
   9.0100000000000013E-002    -7.3322817683219910E-002
   9.1200000000000003E-002    -9.0153723955154419E-002
   9.2300000000000021E-002   -0.11008689552545547
   9.3400000000000011E-002   -0.13378001749515533
   9.4500000000000028E-002   -0.16209277510643005
   9.5600000000000018E-002   -0.19598712027072906
   9.6700000000000008E-002   -0.23643836379051208
   9.7800000000000026E-002   -0.28439867496490479
   9.8900000000000016E-002   -0.34084898233413696
  0.10000000000000001        -0.40688124299049377
  0.10110000000000002        -0.48378673195838928
  0.10220000000000001        -0.57308542728424072
  0.10330000000000003        -0.67653846740722656
  0.10440000000000002        -0.79611504077911377
  0.10550000000000001        -0.93399661779403687
  0.10660000000000003         -1.0925681591033936
  0.10770000000000002         -1.2743996381759644
  0.10880000000000001         -1.4821838140487671
  0.10990000000000003         -1.7186558246612549
  0.11100000000000002         -1.9864720106124878
  0.11210000000000001         -2.2881858348846436
  0.11320000000000002         -2.6262097358703613
  0.11430000000000001         -3.0029964447021484
  0.11540000000000003         -3.4210441112518311
  0.11650000000000002         -3.8829762935638428
  0.11760000000000001         -4.3914270401000977
  0.11870000000000003         -4.9487519264221191
  0.11980000000000002         -5.5567927360534668
  0.12090000000000001         -6.2165012359619141
  0.12200000000000003         -6.9279193878173828
  0.12310000000000001         -7.6899509429931641
  0.12420000000000003         -8.5007114410400391
  0.12530000000000002         -9.3573617935180664
  0.12640000000000001         -10.255994796752930
  0.12750000000000003         -11.191705703735352
  0.12860000000000002         -12.157998085021973
  0.12970000000000001         -13.146286964416504
  0.13080000000000003         -14.146190643310547
  0.13190000000000002         -15.145464897155762
  0.13300000000000001         -16.129308700561523
  0.13410000000000000         -17.082122802734375
  0.13520000000000004         -17.985692977905273
  0.13630000000000003         -18.819641113281250
  0.13740000000000002         -19.561574935913086
  0.13850000000000001         -20.188077926635742
  0.13960000000000000         -20.673500061035156
  0.14070000000000005         -20.991197586059570
  0.14180000000000004         -21.113945007324219
  0.14290000000000003         -21.014375686645508
  0.14400000000000002         -20.665035247802734
  0.14510000000000001         -20.038722991943359
  0.14620000000000000         -19.108856201171875
  0.14730000000000004         -17.849893569946289
  0.14840000000000003         -16.238574981689453
  0.14950000000000002         -14.253909111022949
  0.15060000000000001         -11.881020545959473
  0.15170000000000000         -9.1112728118896484
  0.15280000000000005         -5.9391546249389648
  0.15390000000000004         -2.3657774925231934
  0.15500000000000003          1.6033923625946045
  0.15610000000000002          5.9544286727905273
  0.15720000000000001          10.669909477233887
  0.15830000000000000          15.716353416442871
  0.15940000000000004          21.055137634277344
  0.16050000000000003          26.640619277954102
  0.16160000000000002          32.419742584228516
  0.16270000000000001          38.330986022949219
  0.16380000000000000          44.301921844482422
  0.16490000000000005          50.256832122802734
  0.16600000000000004          56.114715576171875
  0.16710000000000003          61.790317535400391
  0.16820000000000002          67.193168640136719
  0.16930000000000001          72.229576110839844
  0.17040000000000000          76.804420471191406
  0.17150000000000004          80.826141357421875
  0.17260000000000003          84.204864501953125
  0.17370000000000002          86.858566284179688
  0.17480000000000001          88.710151672363281
  0.17590000000000000          89.691085815429688
  0.17700000000000005          89.736640930175781
  0.17810000000000004          88.799484252929688
  0.17920000000000003          86.844314575195312
  0.18030000000000002          83.856018066406250
  0.18140000000000001          79.831695556640625
  0.18250000000000000          74.779991149902344
  0.18360000000000004          68.727874755859375
  0.18470000000000003          61.718006134033203
  0.18580000000000002          53.813266754150391
  0.18690000000000001          45.094779968261719
  0.18800000000000000          35.656173706054688
  0.18910000000000005          25.602811813354492
  0.19020000000000004          15.050753593444824
  0.19130000000000003          4.1298365592956543
  0.19240000000000002         -7.0213618278503418
  0.19350000000000001         -18.255731582641602
  0.19460000000000005         -29.426662445068359
  0.19570000000000004         -40.386959075927734
  0.19680000000000003         -50.994808197021484
  0.19790000000000002         -61.107845306396484
  0.19900000000000001         -70.590507507324219
  0.20010000000000000         -79.313117980957031
  0.20120000000000005         -87.164253234863281
  0.20230000000000004         -94.044403076171875
  0.20340000000000003         -99.872978210449219
  0.20450000000000002         -104.58078765869141
  0.20560000000000000         -108.11311340332031
  0.20670000000000005         -110.44041442871094
  0.20780000000000004         -111.54833221435547
  0.20890000000000003         -111.44937133789062
