 -0.12000000000000000          0.0000000000000000
 -0.11889999999999999          0.0000000000000000
 -0.11780000000000000          0.0000000000000000
 -0.11670000000000000          0.0000000000000000
 -0.11559999999999999          0.0000000000000000
 -0.11449999999999999          0.0000000000000000
 -0.11340000000000000          0.0000000000000000
 -0.11230000000000000          0.0000000000000000
 -0.11119999999999999         -8.0167698600626524E-025
 -0.11009999999999999          2.8495315659927531E-023
 -0.10900000000000000          1.1527354302020698E-022
 -0.10790000000000000         -2.7442294898718039E-022
 -0.10679999999999999         -1.5549023489951613E-021
 -0.10569999999999999          3.2752705069145133E-021
 -0.10460000000000000          2.7797662978785918E-020
 -0.10349999999999999          2.4002847518489594E-020
 -0.10239999999999999         -2.0878453543614402E-019
 -0.10130000000000000         -6.8650717565496271E-019
 -0.10020000000000000         -1.1615449814758903E-019
  -9.9099999999999994E-002     4.0687413736998141E-018
  -9.7999999999999990E-002     9.7588617999413567E-018
  -9.6899999999999986E-002     2.2478589525275912E-020
  -9.5799999999999996E-002    -4.7726501546962080E-017
  -9.4699999999999993E-002    -1.0257592814051219E-016
  -9.3599999999999989E-002    -1.2735032828488774E-017
  -9.2499999999999999E-002     3.8865524449612334E-016
  -9.1399999999999995E-002     8.5403552744792925E-016
  -9.0299999999999991E-002     3.3143197498066855E-016
  -8.9200000000000002E-002    -2.3016004876849844E-015
  -8.8099999999999984E-002    -5.7183677077917751E-015
  -8.6999999999999994E-002    -3.9901176811143590E-015
  -8.5899999999999990E-002     9.7396066499376779E-015
  -8.4799999999999986E-002     3.0774939752597694E-014
  -8.3699999999999997E-002     3.1471492214574584E-014
  -8.2599999999999993E-002    -2.5021004284317763E-014
  -8.1499999999999989E-002    -1.3175108248310308E-013
  -8.0399999999999999E-002    -1.8238917862990756E-013
  -7.9299999999999995E-002    -7.0039303641468344E-015
  -7.8199999999999992E-002     4.3495244840714709E-013
  -7.7100000000000002E-002     8.1414063858586960E-013
  -7.5999999999999984E-002     4.6818457314148909E-013
  -7.4899999999999994E-002    -1.0034515536203048E-012
  -7.3799999999999991E-002    -2.8358192530331117E-012
  -7.2699999999999987E-002    -2.8737082158336591E-012
  -7.1599999999999997E-002     9.2046108148696737E-013
  -7.0499999999999993E-002     7.5544570599106464E-012
  -6.9399999999999989E-002     1.1291766133236791E-011
  -6.8300000000000000E-002     4.5728672584677277E-012
  -6.7199999999999996E-002    -1.4022900896026869E-011
  -6.6099999999999992E-002    -3.2573093527998864E-011
  -6.5000000000000002E-002    -2.9060871764574614E-011
  -6.3899999999999985E-002     1.0482747482554178E-011
  -6.2799999999999995E-002     6.9331068663913697E-011
  -6.1699999999999991E-002     9.6430106955036621E-011
  -6.0599999999999994E-002     3.9561968284695936E-011
  -5.9499999999999990E-002    -9.7561590750583349E-011
  -5.8399999999999994E-002    -2.2293568380238327E-010
  -5.7299999999999990E-002    -1.9996236610975160E-010
  -5.6199999999999986E-002     3.4993036246433462E-011
  -5.5099999999999996E-002     3.6542430192909592E-010
  -5.3999999999999992E-002     5.1723669791670090E-010
  -5.2899999999999989E-002     2.5495969224742510E-010
  -5.1799999999999985E-002    -3.6510328094152555E-010
  -5.0699999999999995E-002    -9.1672719415569759E-010
  -4.9599999999999991E-002    -8.5856755038804522E-010
  -4.8499999999999988E-002    -9.2903991791293272E-012
  -4.7399999999999998E-002     1.1394361010275134E-009
  -4.6299999999999994E-002     1.6442898154167551E-009
  -4.5199999999999990E-002     8.4720985782382741E-010
  -4.4099999999999986E-002    -9.0900054150466758E-010
  -4.2999999999999997E-002    -2.2901656127061187E-009
  -4.1899999999999993E-002    -1.9331911627062937E-009
  -4.0799999999999989E-002     2.7028038140919364E-010
  -3.9699999999999985E-002     2.7126745294481225E-009
  -3.8599999999999995E-002     3.1224691721121189E-009
  -3.7499999999999992E-002     5.5570847923291922E-010
  -3.6399999999999988E-002    -3.3203559901551216E-009
  -3.5299999999999984E-002    -5.0805883944349262E-009
  -3.4199999999999994E-002    -2.3086395017912764E-009
  -3.3099999999999991E-002     3.8222323084369236E-009
  -3.1999999999999987E-002     8.6186915382313600E-009
  -3.0899999999999997E-002     7.1958545788675110E-009
  -2.9799999999999993E-002    -1.1770387997600551E-009
  -2.8699999999999989E-002    -1.1376778630278750E-008
  -2.7599999999999986E-002    -1.5435478672998215E-008
  -2.6499999999999996E-002    -8.5805735849930898E-009
  -2.5399999999999992E-002     6.2828795499569878E-009
  -2.4299999999999988E-002     1.9618006774635433E-008
  -2.3199999999999985E-002     2.1707196040665622E-008
  -2.2099999999999995E-002     9.9230490491208911E-009
  -2.0999999999999991E-002    -8.8431733047400485E-009
  -1.9899999999999987E-002    -2.2768098517644830E-008
  -1.8799999999999983E-002    -2.3424027162377570E-008
  -1.7699999999999994E-002    -1.1559010637540723E-008
  -1.6599999999999990E-002     4.0263019585040638E-009
  -1.5499999999999986E-002     1.3482983618473554E-008
  -1.4399999999999996E-002     1.3251480801557136E-008
  -1.3299999999999992E-002     8.0534841018220504E-009
  -1.2199999999999989E-002     6.0999258977290083E-009
  -1.1099999999999985E-002     1.1315302472780786E-008
  -9.9999999999999950E-003     1.8704879423125931E-008
  -8.8999999999999913E-003     1.6866136931525944E-008
  -7.7999999999999875E-003    -3.3277665067998896E-009
  -6.6999999999999837E-003    -3.9390275929918062E-008
  -5.5999999999999939E-003    -7.4053524201644905E-008
  -4.4999999999999901E-003    -8.2168888582145883E-008
  -3.3999999999999864E-003    -4.5588169683696833E-008
  -2.2999999999999826E-003     3.2051111986675096E-008
  -1.1999999999999927E-003     1.2077397570919857E-007
  -9.9999999999988987E-005     1.7560297749241727E-007
   1.0000000000000148E-003     1.5972953804066492E-007
   2.1000000000000185E-003     6.6491800509993482E-008
   3.2000000000000084E-003    -7.3928845267801080E-008
   4.3000000000000121E-003    -2.0791159727195918E-007
   5.4000000000000159E-003    -2.8311185928941995E-007
   6.5000000000000058E-003    -2.6862866775445582E-007
   7.6000000000000234E-003    -1.6068388219991903E-007
   8.7000000000000133E-003     2.2289672330089161E-008
   9.8000000000000032E-003     2.4302875090143061E-007
   1.0900000000000021E-002     4.4196977455612796E-007
   1.2000000000000011E-002     5.3776631148139131E-007
   1.3100000000000001E-002     4.5008604843133071E-007
   1.4200000000000018E-002     1.4818235172242566E-007
   1.5300000000000008E-002    -3.0089006486377912E-007
   1.6400000000000026E-002    -7.2816527563190903E-007
   1.7500000000000016E-002    -9.2834932274854509E-007
   1.8600000000000005E-002    -7.7128953535066103E-007
   1.9700000000000023E-002    -2.9094886144775955E-007
   2.0800000000000013E-002     3.1546642276225612E-007
   2.1900000000000003E-002     7.9009413411768037E-007
   2.3000000000000020E-002     9.5736663752177265E-007
   2.4100000000000010E-002     8.1196196788368979E-007
   2.5200000000000000E-002     4.9250479605689179E-007
   2.6300000000000018E-002     1.6456915830076468E-007
   2.7400000000000008E-002    -9.6152540152161237E-008
   2.8500000000000025E-002    -3.3045009217858023E-007
   2.9600000000000015E-002    -6.1212671198518365E-007
   3.0700000000000005E-002    -9.2289349140628474E-007
   3.1800000000000023E-002    -1.0950349178528995E-006
   3.2900000000000013E-002    -8.9265154201711994E-007
   3.4000000000000002E-002    -2.0574562142883224E-007
   3.5100000000000020E-002     7.6320804964780109E-007
   3.6200000000000010E-002     1.4713009477418382E-006
   3.7300000000000028E-002     1.2532753999039414E-006
   3.8400000000000017E-002    -2.6599244051794813E-007
   3.9500000000000007E-002    -2.7636249342322117E-006
   4.0600000000000025E-002    -5.0784688028215896E-006
   4.1700000000000015E-002    -5.5134814829216339E-006
   4.2800000000000005E-002    -2.5262020244554151E-006
   4.3900000000000022E-002     4.5061251512379386E-006
   4.5000000000000012E-002     1.4879378795740195E-005
   4.6100000000000002E-002     2.6809846531250514E-005
   4.7200000000000020E-002     3.8281232264125720E-005
   4.8300000000000010E-002     4.8072699428303167E-005
   4.9400000000000027E-002     5.6416258303215727E-005
   5.0500000000000017E-002     6.4939005824271590E-005
   5.1600000000000007E-002     7.5971183832734823E-005
   5.2700000000000025E-002     9.1667185188271105E-005
   5.3800000000000014E-002     1.1345522216288373E-004
   5.4900000000000004E-002     1.4207423373591155E-004
   5.6000000000000022E-002     1.7806993855629116E-004
   5.7100000000000012E-002     2.2236883523873985E-004
   5.8200000000000002E-002     2.7657067403197289E-004
   5.9300000000000019E-002     3.4284169669263065E-004
   6.0400000000000009E-002     4.2356358608230948E-004
   6.1500000000000027E-002     5.2103935740888119E-004
   6.2600000000000017E-002     6.3751783454790711E-004
   6.3700000000000007E-002     7.7561725629493594E-004
   6.4800000000000024E-002     9.3900546198710799E-004
   6.5900000000000014E-002     1.1330179404467344E-003
   6.7000000000000004E-002     1.3648619642481208E-003
   6.8100000000000022E-002     1.6432231059297919E-003
   6.9200000000000012E-002     1.9774241372942924E-003
   7.0300000000000029E-002     2.3766034282743931E-003
   7.1400000000000019E-002     2.8494617436081171E-003
   7.2500000000000009E-002     3.4048459492623806E-003
   7.3600000000000027E-002     4.0529351681470871E-003
   7.4700000000000016E-002     4.8063741996884346E-003
   7.5800000000000006E-002     5.6807277724146843E-003
   7.6900000000000024E-002     6.6940844990313053E-003
   7.8000000000000014E-002     7.8661832958459854E-003
   7.9100000000000004E-002     9.2177242040634155E-003
   8.0200000000000021E-002     1.0770340450108051E-002
   8.1300000000000011E-002     1.2547174468636513E-002
   8.2400000000000029E-002     1.4573599211871624E-002
   8.3500000000000019E-002     1.6877533867955208E-002
   8.4600000000000009E-002     1.9489118829369545E-002
   8.5700000000000026E-002     2.2439904510974884E-002
   8.6800000000000016E-002     2.5761824101209641E-002
   8.7900000000000006E-002     2.9486354440450668E-002
   8.9000000000000024E-002     3.3644128590822220E-002
   9.0100000000000013E-002     3.8265079259872437E-002
   9.1200000000000003E-002     4.3378952890634537E-002
   9.2300000000000021E-002     4.9015719443559647E-002
   9.3400000000000011E-002     5.5205248296260834E-002
   9.4500000000000028E-002     6.1975918710231781E-002
   9.5600000000000018E-002     6.9352239370346069E-002
   9.6700000000000008E-002     7.7352367341518402E-002
   9.7800000000000026E-002     8.5986614227294922E-002
   9.8900000000000016E-002     9.5257326960563660E-002
  0.10000000000000001         0.10515959560871124
  0.10110000000000002         0.11568142473697662
  0.10220000000000001         0.12680226564407349
  0.10330000000000003         0.13849049806594849
  0.10440000000000002         0.15070088207721710
  0.10550000000000001         0.16337253153324127
  0.10660000000000003         0.17642791569232941
  0.10770000000000002         0.18977244198322296
  0.10880000000000001         0.20329484343528748
  0.10990000000000003         0.21686795353889465
  0.11100000000000002         0.23034918308258057
  0.11210000000000001         0.24358046054840088
  0.11320000000000002         0.25638738274574280
  0.11430000000000001         0.26857894659042358
  0.11540000000000003         0.27994850277900696
  0.11650000000000002         0.29027560353279114
  0.11760000000000001         0.29932793974876404
  0.11870000000000003         0.30686405301094055
  0.11980000000000002         0.31263718008995056
  0.12090000000000001         0.31639823317527771
  0.12200000000000003         0.31789883971214294
  0.12310000000000001         0.31689530611038208
  0.12420000000000003         0.31315380334854126
  0.12530000000000002         0.30645543336868286
  0.12640000000000001         0.29660123586654663
  0.12750000000000003         0.28341701626777649
  0.12860000000000002         0.26675644516944885
  0.12970000000000001         0.24650418758392334
  0.13080000000000003         0.22258122265338898
  0.13190000000000002         0.19495168328285217
  0.13300000000000001         0.16362644731998444
  0.13410000000000000         0.12866742908954620
  0.13520000000000004          9.0189881622791290E-002
  0.13630000000000003          4.8361588269472122E-002
  0.13740000000000002          3.4051795955747366E-003
  0.13850000000000001         -4.4401150196790695E-002
  0.13960000000000000         -9.4725884497165680E-002
  0.14070000000000005        -0.14718656241893768
  0.14180000000000004        -0.20135420560836792
  0.14290000000000003        -0.25675600767135620
  0.14400000000000002        -0.31287914514541626
  0.14510000000000001        -0.36917698383331299
  0.14620000000000000        -0.42507562041282654
  0.14730000000000004        -0.47998243570327759
  0.14840000000000003        -0.53329366445541382
  0.14950000000000002        -0.58440405130386353
  0.15060000000000001        -0.63271671533584595
  0.15170000000000000        -0.67765265703201294
  0.15280000000000005        -0.71866005659103394
  0.15390000000000004        -0.75522291660308838
  0.15500000000000003        -0.78686946630477905
  0.15610000000000002        -0.81317907571792603
  0.15720000000000001        -0.83378881216049194
  0.15830000000000000        -0.84839922189712524
  0.15940000000000004        -0.85677880048751831
  0.16050000000000003        -0.85876762866973877
  0.16160000000000002        -0.85428047180175781
  0.16270000000000001        -0.84330862760543823
  0.16380000000000000        -0.82592046260833740
  0.16490000000000005        -0.80225896835327148
  0.16600000000000004        -0.77253633737564087
  0.16710000000000003        -0.73702824115753174
  0.16820000000000002        -0.69606781005859375
  0.16930000000000001        -0.65003985166549683
  0.17040000000000000        -0.59937357902526855
  0.17150000000000004        -0.54453223943710327
  0.17260000000000003        -0.48600465059280396
  0.17370000000000002        -0.42429986596107483
  0.17480000000000001        -0.35993722081184387
  0.17590000000000000        -0.29343605041503906
  0.17700000000000005        -0.22530700266361237
  0.17810000000000004        -0.15604268014431000
  0.17920000000000003         -8.6114801466464996E-002
  0.18030000000000002         -1.5971608459949493E-002
  0.18140000000000001          5.3967501968145370E-002
  0.18250000000000000         0.12331727147102356
  0.18360000000000004         0.19173172116279602
  0.18470000000000003         0.25890335440635681
  0.18580000000000002         0.32455813884735107
  0.18690000000000001         0.38845276832580566
  0.18800000000000000         0.45037269592285156
  0.18910000000000005         0.51012617349624634
  0.19020000000000004         0.56753885746002197
  0.19130000000000003         0.62244945764541626
  0.19240000000000002         0.67470377683639526
  0.19350000000000001         0.72414749860763550
  0.19460000000000005         0.77061730623245239
  0.19570000000000004         0.81393551826477051
  0.19680000000000003         0.85390806198120117
  0.19790000000000002         0.89032036066055298
  0.19900000000000001         0.92293220758438110
  0.20010000000000000         0.95147305727005005
  0.20120000000000005         0.97563868761062622
  0.20230000000000004         0.99509346485137939
  0.20340000000000003          1.0094755887985229
  0.20450000000000002          1.0184018611907959
  0.20560000000000000          1.0214720964431763
  0.20670000000000005          1.0182739496231079
  0.20780000000000004          1.0083906650543213
  0.20890000000000003         0.99141132831573486
