 -0.12000000000000000          0.0000000000000000
 -0.11889999999999999          0.0000000000000000
 -0.11780000000000000          0.0000000000000000
 -0.11670000000000000         -2.3525184023043266E-009
 -0.11559999999999999          7.7887679639232488E-010
 -0.11449999999999999          1.0692497554032343E-008
 -0.11340000000000000         -3.7111608008899566E-008
 -0.11230000000000000         -2.0688185031758621E-007
 -0.11119999999999999         -2.7614797204478236E-007
 -0.11009999999999999          3.2248746606455825E-007
 -0.10900000000000000          1.6805961422505789E-006
 -0.10790000000000000          2.2185174657352036E-006
 -0.10679999999999999         -7.6573604701479780E-007
 -0.10569999999999999         -7.4758859227586072E-006
 -0.10460000000000000         -1.1849328984681051E-005
 -0.10349999999999999         -3.9844030652602669E-006
 -0.10239999999999999          1.8849616026272997E-005
 -0.10130000000000000          4.1310155211249366E-005
 -0.10020000000000000          3.4702163247857243E-005
  -9.9099999999999994E-002    -1.7309419490629807E-005
  -9.7999999999999990E-002    -9.0488218120299280E-005
  -9.6899999999999986E-002    -1.2190219422336668E-004
  -9.5799999999999996E-002    -5.5962413171073422E-005
  -9.4699999999999993E-002     9.5169627456925809E-005
  -9.3599999999999989E-002     2.3491166939493269E-004
  -9.2499999999999999E-002     2.4206697707995772E-004
  -9.1399999999999995E-002     7.1193331677932292E-005
  -9.0299999999999991E-002    -1.9239244284108281E-004
  -8.9200000000000002E-002    -3.8242421578615904E-004
  -8.8099999999999984E-002    -3.7430322845466435E-004
  -8.6999999999999994E-002    -1.7552349891047925E-004
  -8.5899999999999990E-002     9.7176154667977244E-005
  -8.4799999999999986E-002     3.2691957312636077E-004
  -8.3699999999999997E-002     4.7748925862833858E-004
  -8.2599999999999993E-002     5.6067790137603879E-004
  -8.1499999999999989E-002     5.3283042507246137E-004
  -8.0399999999999999E-002     2.5929635739885271E-004
  -7.9299999999999995E-002    -3.6469075712375343E-004
  -7.8199999999999992E-002    -1.2156887678429484E-003
  -7.7100000000000002E-002    -1.8674667226150632E-003
  -7.5999999999999984E-002    -1.7773476429283619E-003
  -7.4899999999999994E-002    -6.5258954418823123E-004
  -7.3799999999999991E-002     1.2642430374398828E-003
  -7.2699999999999987E-002     3.2210994977504015E-003
  -7.1599999999999997E-002     4.2983903549611568E-003
  -7.0499999999999993E-002     3.8470514118671417E-003
  -6.9399999999999989E-002     1.7636317061260343E-003
  -6.8300000000000000E-002    -1.5063963364809752E-003
  -6.7199999999999996E-002    -5.1684221252799034E-003
  -6.6099999999999992E-002    -8.3561474457383156E-003
  -6.5000000000000002E-002    -1.0413766838610172E-002
  -6.3899999999999985E-002    -1.1146289296448231E-002
  -6.2799999999999995E-002    -1.0955890640616417E-002
  -6.1699999999999991E-002    -1.0740623809397221E-002
  -6.0599999999999994E-002    -1.1523471213877201E-002
  -5.9499999999999990E-002    -1.3988502323627472E-002
  -5.8399999999999994E-002    -1.8233342096209526E-002
  -5.7299999999999990E-002    -2.3923391476273537E-002
  -5.6199999999999986E-002    -3.0714174732565880E-002
  -5.5099999999999996E-002    -3.8582351058721542E-002
  -5.3999999999999992E-002    -4.7810357064008713E-002
  -5.2899999999999989E-002    -5.8723837137222290E-002
  -5.1799999999999985E-002    -7.1530736982822418E-002
  -5.0699999999999995E-002    -8.6484774947166443E-002
  -4.9599999999999991E-002   -0.10421260446310043
  -4.8499999999999988E-002   -0.12580612301826477
  -4.7399999999999998E-002   -0.15248519182205200
  -4.6299999999999994E-002   -0.18509519100189209
  -4.5199999999999990E-002   -0.22395505011081696
  -4.4099999999999986E-002   -0.26929837465286255
  -4.2999999999999997E-002   -0.32199022173881531
  -4.1899999999999993E-002   -0.38389655947685242
  -4.0799999999999989E-002   -0.45757758617401123
  -3.9699999999999985E-002   -0.54557681083679199
  -3.8599999999999995E-002   -0.64990746974945068
  -3.7499999999999992E-002   -0.77210384607315063
  -3.6399999999999988E-002   -0.91361659765243530
  -3.5299999999999984E-002    -1.0760957002639771
  -3.4199999999999994E-002    -1.2613633871078491
  -3.3099999999999991E-002    -1.4713776111602783
  -3.1999999999999987E-002    -1.7085365056991577
  -3.0899999999999997E-002    -1.9762439727783203
  -2.9799999999999993E-002    -2.2791514396667480
  -2.8699999999999989E-002    -2.6226091384887695
  -2.7599999999999986E-002    -3.0115070343017578
  -2.6499999999999996E-002    -3.4494118690490723
  -2.5399999999999992E-002    -3.9386537075042725
  -2.4299999999999988E-002    -4.4812746047973633
  -2.3199999999999985E-002    -5.0799407958984375
  -2.2099999999999995E-002    -5.7379479408264160
  -2.0999999999999991E-002    -6.4584097862243652
  -1.9899999999999987E-002    -7.2434401512145996
  -1.8799999999999983E-002    -8.0940418243408203
  -1.7699999999999994E-002    -9.0105237960815430
  -1.6599999999999990E-002    -9.9927234649658203
  -1.5499999999999986E-002    -11.039438247680664
  -1.4399999999999996E-002    -12.147548675537109
  -1.3299999999999992E-002    -13.311620712280273
  -1.2199999999999989E-002    -14.524510383605957
  -1.1099999999999985E-002    -15.778213500976562
  -9.9999999999999950E-003    -17.064054489135742
  -8.8999999999999913E-003    -18.371446609497070
  -7.7999999999999875E-003    -19.686342239379883
  -6.6999999999999837E-003    -20.990837097167969
  -5.5999999999999939E-003    -22.263862609863281
  -4.4999999999999901E-003    -23.482843399047852
  -3.3999999999999864E-003    -24.624235153198242
  -2.2999999999999826E-003    -25.662687301635742
  -1.1999999999999927E-003    -26.569707870483398
  -9.9999999999988987E-005    -27.313802719116211
   1.0000000000000148E-003    -27.861093521118164
   2.1000000000000185E-003    -28.177080154418945
   3.2000000000000084E-003    -28.227249145507812
   4.3000000000000121E-003    -27.976062774658203
   5.4000000000000159E-003    -27.386848449707031
   6.5000000000000058E-003    -26.421802520751953
   7.6000000000000234E-003    -25.045379638671875
   8.7000000000000133E-003    -23.225675582885742
   9.8000000000000032E-003    -20.935190200805664
   1.0900000000000021E-002    -18.149698257446289
   1.2000000000000011E-002    -14.847049713134766
   1.3100000000000001E-002    -11.008428573608398
   1.4200000000000018E-002    -6.6216573715209961
   1.5300000000000008E-002    -1.6819586753845215
   1.6400000000000026E-002     3.8054594993591309
   1.7500000000000016E-002     9.8278121948242188
   1.8600000000000005E-002     16.365892410278320
   1.9700000000000023E-002     23.391685485839844
   2.0800000000000013E-002     30.866928100585938
   2.1900000000000003E-002     38.741371154785156
   2.3000000000000020E-002     46.954723358154297
   2.4100000000000010E-002     55.437114715576172
   2.5200000000000000E-002     64.113288879394531
   2.6300000000000018E-002     72.900924682617188
   2.7400000000000008E-002     81.708175659179688
   2.8500000000000025E-002     90.433609008789062
   2.9600000000000015E-002     98.968292236328125
   3.0700000000000005E-002     107.19853973388672
   3.1800000000000023E-002     115.01004791259766
   3.2900000000000013E-002     122.28836822509766
   3.4000000000000002E-002     128.91703796386719
   3.5100000000000020E-002     134.77917480468750
   3.6200000000000010E-002     139.75941467285156
   3.7300000000000028E-002     143.74871826171875
   3.8400000000000017E-002     146.64649963378906
   3.9500000000000007E-002     148.36079406738281
   4.0600000000000025E-002     148.80844116210938
   4.1700000000000015E-002     147.91471862792969
   4.2800000000000005E-002     145.61747741699219
   4.3900000000000022E-002     141.86853027343750
   4.5000000000000012E-002     136.63662719726562
   4.6100000000000002E-002     129.90628051757812
   4.7200000000000020E-002     121.67642211914062
   4.8300000000000010E-002     111.96109008789062
   4.9400000000000027E-002     100.79113769531250
   5.0500000000000017E-002     88.215629577636719
   5.1600000000000007E-002     74.303268432617188
   5.2700000000000025E-002     59.138446807861328
   5.3800000000000014E-002     42.819713592529297
   5.4900000000000004E-002     25.459878921508789
   5.6000000000000022E-002     7.1863741874694824
   5.7100000000000012E-002    -11.857990264892578
   5.8200000000000002E-002    -31.516136169433594
   5.9300000000000019E-002    -51.621780395507812
   6.0400000000000009E-002    -71.999389648437500
   6.1500000000000027E-002    -92.467811584472656
   6.2600000000000017E-002    -112.83644866943359
   6.3700000000000007E-002    -132.90708923339844
   6.4800000000000024E-002    -152.47589111328125
   6.5900000000000014E-002    -171.33941650390625
   6.7000000000000004E-002    -189.29811096191406
   6.8100000000000022E-002    -206.15553283691406
   6.9200000000000012E-002    -221.71942138671875
   7.0300000000000029E-002    -235.79942321777344
   7.1400000000000019E-002    -248.21453857421875
   7.2500000000000009E-002    -258.79580688476562
   7.3600000000000027E-002    -267.39077758789062
   7.4700000000000016E-002    -273.86389160156250
   7.5800000000000006E-002    -278.09490966796875
   7.6900000000000024E-002    -279.98336791992188
   7.8000000000000014E-002    -279.44921875000000
   7.9100000000000004E-002    -276.43963623046875
   8.0200000000000021E-002    -270.93035888671875
   8.1300000000000011E-002    -262.92449951171875
   8.2400000000000029E-002    -252.45483398437500
   8.3500000000000019E-002    -239.57904052734375
   8.4600000000000009E-002    -224.38536071777344
   8.5700000000000026E-002    -206.99259948730469
   8.6800000000000016E-002    -187.55102539062500
   8.7900000000000006E-002    -166.24050903320312
   8.9000000000000024E-002    -143.26751708984375
   9.0100000000000013E-002    -118.85993957519531
   9.1200000000000003E-002    -93.268783569335938
   9.2300000000000021E-002    -66.765136718750000
   9.3400000000000011E-002    -39.639011383056641
   9.4500000000000028E-002    -12.190698623657227
   9.5600000000000018E-002     15.274305343627930
   9.6700000000000008E-002     42.448741912841797
   9.7800000000000026E-002     69.027137756347656
   9.8900000000000016E-002     94.706588745117188
  0.10000000000000001          119.19463348388672
  0.10110000000000002          142.21528625488281
  0.10220000000000001          163.51554870605469
  0.10330000000000003          182.86816406250000
  0.10440000000000002          200.07170104980469
  0.10550000000000001          214.95353698730469
  0.10660000000000003          227.37342834472656
  0.10770000000000002          237.22802734375000
  0.10880000000000001          244.45446777343750
  0.10990000000000003          249.03051757812500
  0.11100000000000002          250.96730041503906
  0.11210000000000001          250.31176757812500
  0.11320000000000002          247.14451599121094
  0.11430000000000001          241.58036804199219
  0.11540000000000003          233.76777648925781
  0.11650000000000002          223.88407897949219
  0.11760000000000001          212.12826538085938
  0.11870000000000003          198.71792602539062
  0.11980000000000002          183.88281250000000
  0.12090000000000001          167.86715698242188
  0.12200000000000003          150.92416381835938
  0.12310000000000001          133.30964660644531
  0.12420000000000003          115.27758026123047
  0.12530000000000002          97.071334838867188
  0.12640000000000001          78.923355102539062
  0.12750000000000003          61.056076049804688
  0.12860000000000002          43.676227569580078
  0.12970000000000001          26.971801757812500
  0.13080000000000003          11.109425544738770
  0.13190000000000002         -3.7695546150207520
  0.13300000000000001         -17.547250747680664
  0.13410000000000000         -30.127569198608398
  0.13520000000000004         -41.437725067138672
  0.13630000000000003         -51.429180145263672
  0.13740000000000002         -60.078048706054688
  0.13850000000000001         -67.382057189941406
  0.13960000000000000         -73.358329772949219
  0.14070000000000005         -78.040229797363281
  0.14180000000000004         -81.476692199707031
  0.14290000000000003         -83.732955932617188
  0.14400000000000002         -84.887092590332031
  0.14510000000000001         -85.027511596679688
  0.14620000000000000         -84.247642517089844
  0.14730000000000004         -82.643692016601562
  0.14840000000000003         -80.314643859863281
  0.14950000000000002         -77.362426757812500
  0.15060000000000001         -73.890289306640625
  0.15170000000000000         -69.998764038085938
  0.15280000000000005         -65.782119750976562
  0.15390000000000004         -61.327014923095703
  0.15500000000000003         -56.714069366455078
  0.15610000000000002         -52.019649505615234
  0.15720000000000001         -47.315368652343750
  0.15830000000000000         -42.665248870849609
  0.15940000000000004         -38.123008728027344
  0.16050000000000003         -33.732212066650391
  0.16160000000000002         -29.527923583984375
  0.16270000000000001         -25.540065765380859
  0.16380000000000000         -21.793519973754883
  0.16490000000000005         -18.306863784790039
  0.16600000000000004         -15.090972900390625
  0.16710000000000003         -12.149448394775391
  0.16820000000000002         -9.4811305999755859
  0.16930000000000001         -7.0821380615234375
  0.17040000000000000         -4.9467277526855469
  0.17150000000000004         -3.0661759376525879
  0.17260000000000003         -1.4282563924789429
  0.17370000000000002         -1.8067616969347000E-002
  0.17480000000000001          1.1806237697601318
  0.17590000000000000          2.1840744018554688
  0.17700000000000005          3.0086126327514648
  0.17810000000000004          3.6713137626647949
  0.17920000000000003          4.1899862289428711
  0.18030000000000002          4.5818514823913574
  0.18140000000000001          4.8619208335876465
  0.18250000000000000          5.0436105728149414
  0.18360000000000004          5.1392850875854492
  0.18470000000000003          5.1619639396667480
  0.18580000000000002          5.1246376037597656
  0.18690000000000001          5.0387849807739258
  0.18800000000000000          4.9133238792419434
  0.18910000000000005          4.7552847862243652
  0.19020000000000004          4.5715303421020508
  0.19130000000000003          4.3698978424072266
  0.19240000000000002          4.1581773757934570
  0.19350000000000001          3.9421873092651367
  0.19460000000000005          3.7246379852294922
  0.19570000000000004          3.5063772201538086
  0.19680000000000003          3.2887732982635498
  0.19790000000000002          3.0750513076782227
  0.19900000000000001          2.8693237304687500
  0.20010000000000000          2.6744349002838135
  0.20120000000000005          2.4904954433441162
  0.20230000000000004          2.3158726692199707
  0.20340000000000003          2.1493535041809082
  0.20450000000000002          1.9916092157363892
  0.20560000000000000          1.8445236682891846
  0.20670000000000005          1.7093905210494995
  0.20780000000000004          1.5856815576553345
  0.20890000000000003          1.4714764356613159
