 -0.12000000000000000          0.0000000000000000
 -0.11889999999999999          0.0000000000000000
 -0.11780000000000000          0.0000000000000000
 -0.11670000000000000          0.0000000000000000
 -0.11559999999999999          0.0000000000000000
 -0.11449999999999999          0.0000000000000000
 -0.11340000000000000         -1.3827176070788570E-009
 -0.11230000000000000         -1.0714921394594180E-008
 -0.11119999999999999         -3.1082111884732789E-010
 -0.11009999999999999          2.3058711917654277E-007
 -0.10900000000000000          9.3477598284151394E-007
 -0.10790000000000000          1.0984417713190031E-006
 -0.10679999999999999         -3.4698427953113555E-006
 -0.10569999999999999         -1.7027459762175252E-005
 -0.10460000000000000         -2.9152628485463601E-005
 -0.10349999999999999          7.6964948902600895E-007
 -0.10239999999999999          1.1852298484881894E-004
 -0.10130000000000000          2.7677291654982058E-004
 -0.10020000000000000          2.3492854961662177E-004
  -9.9099999999999994E-002    -3.3342375536445264E-004
  -9.7999999999999990E-002    -1.3773917453363427E-003
  -9.6899999999999986E-002    -1.9434822024778442E-003
  -9.5799999999999996E-002    -4.1456235339886594E-004
  -9.4699999999999993E-002     3.8575893267987207E-003
  -9.3599999999999989E-002     8.3686904981733774E-003
  -9.2499999999999999E-002     7.3732761666185937E-003
  -9.1399999999999995E-002    -3.7676808424283504E-003
  -9.0299999999999991E-002    -2.1467627957462862E-002
  -8.9200000000000002E-002    -3.0993500724436254E-002
  -8.8099999999999984E-002    -1.5022703446451144E-002
  -8.6999999999999994E-002     2.8116350993510925E-002
  -8.5899999999999990E-002     7.1765594184399206E-002
  -8.4799999999999986E-002     7.2561830282217701E-002
  -8.3699999999999997E-002     7.6692751608885825E-003
  -8.2599999999999993E-002    -9.0651586651796678E-002
  -8.1499999999999989E-002   -0.14381304383278543
  -8.0399999999999999E-002    -9.0235874056834225E-002
  -7.9299999999999995E-002     4.3427970260363713E-002
  -7.8199999999999992E-002    0.14107240736484408
  -7.7100000000000002E-002     9.7635746002219664E-002
  -7.5999999999999984E-002    -5.2611477673021746E-002
  -7.4899999999999994E-002   -0.12103266268967257
  -7.3799999999999991E-002     6.5657421946501621E-002
  -7.2699999999999987E-002    0.42660346627230783
  -7.1599999999999997E-002    0.57286322116849475
  -7.0499999999999993E-002     9.7916811704674103E-002
  -6.9399999999999989E-002   -0.94913125038138302
  -6.8300000000000000E-002    -1.8508100509642955
  -6.7199999999999996E-002    -1.6225697994232693
  -6.6099999999999992E-002    0.12786164879781572
  -6.5000000000000002E-002     2.5769534111021057
  -6.3899999999999985E-002     3.9980087280273060
  -6.2799999999999995E-002     3.0041131973268693
  -6.1699999999999991E-002   -0.19341543316803916
  -6.0599999999999994E-002    -3.6705608367916986
  -5.9499999999999990E-002    -5.1439290046692072
  -5.8399999999999994E-002    -3.7843532562259501
  -5.7299999999999990E-002   -0.88144189119388094
  -5.6199999999999986E-002     1.3744338750836256
  -5.5099999999999996E-002     1.9772356748581610
  -5.3999999999999992E-002     2.0361292362216323
  -5.2899999999999989E-002     3.4302141666415116
  -5.1799999999999985E-002     6.2862353324890474
  -5.0699999999999995E-002     7.8608527183531542
  -4.9599999999999991E-002     4.4712548255920828
  -4.8499999999999988E-002    -4.7350420951839123
  -4.7399999999999998E-002    -15.581686973571154
  -4.6299999999999994E-002    -20.838775634765298
  -4.5199999999999990E-002    -15.442556381226039
  -4.4099999999999986E-002   -0.82600933313495317
  -4.2999999999999997E-002     15.494830131529273
  -4.1899999999999993E-002     25.043281555174907
  -4.0799999999999989E-002     24.046052932739567
  -3.9699999999999985E-002     14.992619514466750
  -3.8599999999999995E-002     3.2321798801440766
  -3.7499999999999992E-002    -7.7079677581772090
  -3.6399999999999988E-002    -17.511878967284527
  -3.5299999999999984E-002    -26.288516998291296
  -3.4199999999999994E-002    -31.291727066040963
  -3.3099999999999991E-002    -27.511558532716126
  -3.1999999999999987E-002    -12.373002052308623
  -3.0899999999999997E-002     10.022856712339653
  -2.9799999999999993E-002     29.976093292234637
  -2.8699999999999989E-002     38.474914550779850
  -2.7599999999999986E-002     33.200775146483778
  -2.6499999999999996E-002     18.698060989380608
  -2.5399999999999992E-002    0.92001384496915994
  -2.4299999999999988E-002    -17.800542831417477
  -2.3199999999999985E-002    -37.758701324459487
  -2.2099999999999995E-002    -56.066947937010006
  -2.0999999999999991E-002    -63.399524688722096
  -1.9899999999999987E-002    -49.058792114262545
  -1.8799999999999983E-002    -11.345480918890914
  -1.7699999999999994E-002     37.019515991205118
  -1.6599999999999990E-002     75.951705932614971
  -1.5499999999999986E-002     93.534751892092800
  -1.4399999999999996E-002     96.538116455086211
  -1.3299999999999992E-002     105.28342437745368
  -1.2199999999999989E-002     136.22158813478146
  -1.1099999999999985E-002     187.84286499025404
  -9.9999999999999950E-003     243.54403686525862
  -8.8999999999999913E-003     289.53192138674780
  -7.7999999999999875E-003     331.18786621097064
  -6.6999999999999837E-003     392.09771728519274
  -5.5999999999999939E-003     496.26693725590030
  -4.4999999999999901E-003     650.30841064458059
  -3.3999999999999864E-003     842.62969970709537
  -2.2999999999999826E-003     1060.1857910157107
  -1.1999999999999927E-003     1306.2562255860500
  -9.9999999999988987E-005     1602.2662353517053
   1.0000000000000148E-003     1973.0760498048630
   2.1000000000000185E-003     2431.9143066408378
   3.2000000000000084E-003     2981.0205078127574
   4.3000000000000121E-003     3627.0007324221879
   5.4000000000000159E-003     4393.9609375003811
   6.5000000000000058E-003     5319.8569335942138
   7.6000000000000234E-003     6439.8154296880621
   8.7000000000000133E-003     7775.0058593756785
   9.8000000000000032E-003     9340.9082031258149
   1.0900000000000021E-002     11167.777343750977
   1.2000000000000011E-002     13311.256835938666
   1.3100000000000001E-002     15840.305664063890
   1.4200000000000018E-002     18813.140625001652
   1.5300000000000008E-002     22267.548828126954
   1.6400000000000026E-002     26238.177734377306
   1.7500000000000016E-002     30786.787109377714
   1.8600000000000005E-002     36014.101562503180
   1.9700000000000023E-002     42038.953125003718
   2.0800000000000013E-002     48961.496093754329
   2.1900000000000003E-002     56848.644531255035
   2.3000000000000020E-002     65755.679687505835
   2.4100000000000010E-002     75767.390625006738
   2.5200000000000000E-002     87015.085937507756
   2.6300000000000018E-002     99653.054687508891
   2.7400000000000008E-002     113811.26562501016
   2.8500000000000025E-002     129572.75000001158
   2.9600000000000015E-002     146991.31250001315
   3.0700000000000005E-002     166136.73437501490
   3.1800000000000023E-002     187115.92187501682
   3.2900000000000013E-002     210050.71875001889
   3.4000000000000002E-002     235035.85937502119
   3.5100000000000020E-002     262113.62500002366
   3.6200000000000010E-002     291292.12500002637
   3.7300000000000028E-002     322576.43750002922
   3.8400000000000017E-002     355973.12500003231
   3.9500000000000007E-002     391455.84375003556
   4.0600000000000025E-002     428920.46875003906
   4.1700000000000015E-002     468179.03125004267
   4.2800000000000005E-002     509001.62500004651
   4.3900000000000022E-002     551158.93750005041
   4.5000000000000012E-002     594431.06250005448
   4.6100000000000002E-002     638548.87500005867
   4.7200000000000020E-002     683139.18750006286
   4.8300000000000010E-002     727701.25000006717
   4.9400000000000027E-002     771667.62500007136
   5.0500000000000017E-002     814454.93750007544
   5.1600000000000007E-002     855493.37500007940
   5.2700000000000025E-002     894166.00000008324
   5.3800000000000014E-002     929758.56250008673
   5.4900000000000004E-002     961435.56250008987
   5.6000000000000022E-002     988327.37500009267
   5.7100000000000012E-002     1009578.4375000950
   5.8200000000000002E-002     1024400.7500000966
   5.9300000000000019E-002     1032006.4375000977
   6.0400000000000009E-002     1031573.3750000980
   6.1500000000000027E-002     1022229.8125000976
   6.2600000000000017E-002     1003140.5000000962
   6.3700000000000007E-002     973587.06250009383
   6.4800000000000024E-002     932973.75000009045
   6.5900000000000014E-002     880775.31250008603
   6.7000000000000004E-002     816513.75000008044
   6.8100000000000022E-002     739771.12500007369
   6.9200000000000012E-002     650299.25000006577
   7.0300000000000029E-002     548092.31250005658
   7.1400000000000019E-002     433375.46875004622
   7.2500000000000009E-002     306519.34375003469
   7.3600000000000027E-002     168006.60937502206
   7.4700000000000016E-002     18420.705078133309
   7.5800000000000006E-002    -141429.53125000643
   7.6900000000000024E-002    -310444.71875002212
   7.8000000000000014E-002    -487267.62500003859
   7.9100000000000004E-002    -670354.68750005576
   8.0200000000000021E-002    -858117.37500007334
   8.1300000000000011E-002    -1048882.8750000915
   8.2400000000000029E-002    -1240813.8750001097
   8.3500000000000019E-002    -1431853.7500001278
   8.4600000000000009E-002    -1619786.1250001458
   8.5700000000000026E-002    -1802358.3750001634
   8.6800000000000016E-002    -1977387.2500001802
   8.7900000000000006E-002    -2142792.7500001965
   8.9000000000000024E-002    -2296528.2500002114
   9.0100000000000013E-002    -2436511.5000002254
   9.1200000000000003E-002    -2560693.0000002380
   9.2300000000000021E-002    -2667177.5000002487
   9.3400000000000011E-002    -2754363.2500002580
   9.4500000000000028E-002    -2820918.0000002650
   9.5600000000000018E-002    -2865728.5000002705
   9.6700000000000008E-002    -2887824.2500002733
   9.7800000000000026E-002    -2886442.2500002743
   9.8900000000000016E-002    -2861147.5000002729
  0.10000000000000001         -2811936.2500002692
  0.10110000000000002         -2739183.0000002636
  0.10220000000000001         -2643538.7500002552
  0.10330000000000003         -2525827.2500002449
  0.10440000000000002         -2387060.0000002328
  0.10550000000000001         -2228554.2500002184
  0.10660000000000003         -2051990.3750002023
  0.10770000000000002         -1859349.8750001849
  0.10880000000000001         -1652771.6250001658
  0.10990000000000003         -1434463.5000001455
  0.11100000000000002         -1206657.1250001243
  0.11210000000000001         -971716.75000010221
  0.11320000000000002         -732170.06250007963
  0.11430000000000001         -490641.18750005681
  0.11540000000000003         -249698.34375003391
  0.11650000000000002         -11696.963867198672
  0.11760000000000001          221169.53125001115
  0.11870000000000003          446804.50000003289
  0.11980000000000002          663149.75000005378
  0.12090000000000001          868200.56250007369
  0.12200000000000003          1060193.8750000924
  0.12310000000000001          1237677.1250001099
  0.12420000000000003          1399552.0000001260
  0.12530000000000002          1544914.0000001404
  0.12640000000000001          1672956.1250001534
  0.12750000000000003          1782964.1250001646
  0.12860000000000002          1874475.3750001739
  0.12970000000000001          1947396.7500001818
  0.13080000000000003          2001922.5000001877
  0.13190000000000002          2038477.8750001921
  0.13300000000000001          2057550.6250001946
  0.13410000000000000          2059610.3750001956
  0.13520000000000004          2045316.6250001951
  0.13630000000000003          2015541.8750001930
  0.13740000000000002          1971437.5000001895
  0.13850000000000001          1914173.6250001846
  0.13960000000000000          1844912.6250001788
  0.14070000000000005          1764789.5000001716
  0.14180000000000004          1674943.7500001637
  0.14290000000000003          1576714.6250001548
  0.14400000000000002          1471500.8750001453
  0.14510000000000001          1360754.6250001350
  0.14620000000000000          1245729.1250001243
  0.14730000000000004          1127665.1250001134
  0.14840000000000003          1007750.5000001021
  0.14950000000000002          887210.81250009069
  0.15060000000000001          767416.00000007928
  0.15170000000000000          649504.12500006799
  0.15280000000000005          534502.37500005681
  0.15390000000000004          423305.78125004604
  0.15500000000000003          316695.53125003556
  0.15610000000000002          215650.04687502555
  0.15720000000000001          121012.68750001609
  0.15830000000000000          33529.781250007254
  0.15940000000000004         -46364.023437500909
  0.16050000000000003         -118349.63281250838
  0.16160000000000002         -182141.89062501510
  0.16270000000000001         -237457.90625002104
  0.16380000000000000         -284053.40625002614
  0.16490000000000005         -321865.50000003044
  0.16600000000000004         -351125.03125003388
  0.16710000000000003         -372229.34375003655
  0.16820000000000002         -385598.46875003848
  0.16930000000000001         -391544.25000003958
  0.17040000000000000         -390464.50000003999
  0.17150000000000004         -382844.34375003970
  0.17260000000000003         -369444.56250003877
  0.17370000000000002         -351145.65625003731
  0.17480000000000001         -328799.68750003545
  0.17590000000000000         -303106.81250003312
  0.17700000000000005         -274701.34375003044
  0.17810000000000004         -244283.21875002744
  0.17920000000000003         -212704.23437502430
  0.18030000000000002         -180879.51562502104
  0.18140000000000001         -149554.31250001775
  0.18250000000000000         -119269.62500001451
  0.18360000000000004         -90490.273437511307
  0.18470000000000003         -63647.921875008244
  0.18580000000000002         -39234.085937505384
  0.18690000000000001         -17676.171875002787
  0.18800000000000000          703.82824706983195
  0.18910000000000005          15855.371093751530
  0.19020000000000004          27829.755859378245
  0.19130000000000003          36656.652343754649
  0.19240000000000002          42299.722656255719
  0.19350000000000001          44903.750000006439
  0.19460000000000005          44597.539062506818
  0.19570000000000004          41791.500000006905
  0.19680000000000003          36763.519531256738
  0.19790000000000002          29943.408203131345
  0.19900000000000001          21542.660156255726
  0.20010000000000000          11883.088867192408
  0.20120000000000005          1341.5546875039224
  0.20230000000000004         -9650.1982421846715
  0.20340000000000003         -20752.791015623330
  0.20450000000000002         -31676.703124999520
  0.20560000000000000         -42206.058593750728
  0.20670000000000005         -52110.761718751928
  0.20780000000000004         -61128.511718753100
  0.20890000000000003         -69050.226562504206
