 -0.12000000000000000          0.0000000000000000
 -0.11889999999999999          8926.6816406250000
 -0.11780000000000000          20355.591796875000
 -0.11670000000000000          26123.164062500000
 -0.11559999999999999          24633.867187500000
 -0.11449999999999999          22484.880859375000
 -0.11340000000000000          27899.263671875000
 -0.11230000000000000          42761.675781250000
 -0.11119999999999999          61309.019531250000
 -0.11009999999999999          76593.296875000000
 -0.10900000000000000          87948.617187500000
 -0.10790000000000000          101916.03125000000
 -0.10679999999999999          125998.79687500000
 -0.10569999999999999          161927.37500000000
 -0.10460000000000000          205316.48437500000
 -0.10349999999999999          251739.23437500000
 -0.10239999999999999          302653.37500000000
 -0.10130000000000000          365091.15625000000
 -0.10020000000000000          445815.34375000000
  -9.9099999999999994E-002     546419.50000000000
  -9.7999999999999990E-002     664590.81250000000
  -9.6899999999999986E-002     800002.81250000000
  -9.5799999999999996E-002     958378.62500000000
  -9.4699999999999993E-002     1149377.3750000000
  -9.3599999999999989E-002     1380718.1250000000
  -9.2499999999999999E-002     1655049.5000000000
  -9.1399999999999995E-002     1973099.7500000000
  -9.0299999999999991E-002     2339817.5000000000
  -8.9200000000000002E-002     2766910.7500000000
  -8.8099999999999984E-002     3268979.5000000000
  -8.6999999999999994E-002     3857341.7500000000
  -8.5899999999999990E-002     4538241.5000000000
  -8.4799999999999986E-002     5317557.5000000000
  -8.3699999999999997E-002     6207202.5000000000
  -8.2599999999999993E-002     7226458.5000000000
  -8.1499999999999989E-002     8396672.0000000000
  -8.0399999999999999E-002     9734732.0000000000
  -7.9299999999999995E-002     11252126.000000000
  -7.8199999999999992E-002     12960638.000000000
  -7.7100000000000002E-002     14878791.000000000
  -7.5999999999999984E-002     17032284.000000000
  -7.4899999999999994E-002     19447822.000000000
  -7.3799999999999991E-002     22146438.000000000
  -7.2699999999999987E-002     25142884.000000000
  -7.1599999999999997E-002     28451436.000000000
  -7.0499999999999993E-002     32091696.000000000
  -6.9399999999999989E-002     36088236.000000000
  -6.8300000000000000E-002     40464104.000000000
  -6.7199999999999996E-002     45234492.000000000
  -6.6099999999999992E-002     50406528.000000000
  -6.5000000000000002E-002     55984480.000000000
  -6.3899999999999985E-002     61974464.000000000
  -6.2799999999999995E-002     68382992.000000000
  -6.1699999999999991E-002     75210608.000000000
  -6.0599999999999994E-002     82446576.000000000
  -5.9499999999999990E-002     90069288.000000000
  -5.8399999999999994E-002     98051192.000000000
  -5.7299999999999990E-002     106361944.00000000
  -5.6199999999999986E-002     114966024.00000000
  -5.5099999999999996E-002     123816864.00000000
  -5.3999999999999992E-002     132853600.00000000
  -5.2899999999999989E-002     142002720.00000000
  -5.1799999999999985E-002     151183248.00000000
  -5.0699999999999995E-002     160308880.00000000
  -4.9599999999999991E-002     169285344.00000000
  -4.8499999999999988E-002     178005344.00000000
  -4.7399999999999998E-002     186348128.00000000
  -4.6299999999999994E-002     194183312.00000000
  -4.5199999999999990E-002     201376864.00000000
  -4.4099999999999986E-002     207793200.00000000
  -4.2999999999999997E-002     213292576.00000000
  -4.1899999999999993E-002     217728112.00000000
  -4.0799999999999989E-002     220947568.00000000
  -3.9699999999999985E-002     222799760.00000000
  -3.8599999999999995E-002     223141472.00000000
  -3.7499999999999992E-002     221839776.00000000
  -3.6399999999999988E-002     218769504.00000000
  -3.5299999999999984E-002     213812192.00000000
  -3.4199999999999994E-002     206858992.00000000
  -3.3099999999999991E-002     197818064.00000000
  -3.1999999999999987E-002     186621904.00000000
  -3.0899999999999997E-002     173228144.00000000
  -2.9799999999999993E-002     157617856.00000000
  -2.8699999999999989E-002     139792864.00000000
  -2.7599999999999986E-002     119778896.00000000
  -2.6499999999999996E-002     97631952.000000000
  -2.5399999999999992E-002     73442808.000000000
  -2.4299999999999988E-002     47336032.000000000
  -2.3199999999999985E-002     19465624.000000000
  -2.2099999999999995E-002    -9989637.0000000000
  -2.0999999999999991E-002    -40825184.000000000
  -1.9899999999999987E-002    -72807648.000000000
  -1.8799999999999983E-002    -105673912.00000000
  -1.7699999999999994E-002    -139135728.00000000
  -1.6599999999999990E-002    -172887584.00000000
  -1.5499999999999986E-002    -206612928.00000000
  -1.4399999999999996E-002    -239986128.00000000
  -1.3299999999999992E-002    -272672608.00000000
  -1.2199999999999989E-002    -304331168.00000000
  -1.1099999999999985E-002    -334621440.00000000
  -9.9999999999999950E-003    -363212800.00000000
  -8.8999999999999913E-003    -389791040.00000000
  -7.7999999999999875E-003    -414060928.00000000
  -6.6999999999999837E-003    -435746720.00000000
  -5.5999999999999939E-003    -454596192.00000000
  -4.4999999999999901E-003    -470385856.00000000
  -3.3999999999999864E-003    -482929248.00000000
  -2.2999999999999826E-003    -492080384.00000000
  -1.1999999999999927E-003    -497733536.00000000
  -9.9999999999988987E-005    -499822336.00000000
   1.0000000000000148E-003    -498319360.00000000
   2.1000000000000185E-003    -493240416.00000000
   3.2000000000000084E-003    -484646432.00000000
   4.3000000000000121E-003    -472642464.00000000
   5.4000000000000159E-003    -457373248.00000000
   6.5000000000000058E-003    -439019264.00000000
   7.6000000000000234E-003    -417792960.00000000
   8.7000000000000133E-003    -393937440.00000000
   9.8000000000000032E-003    -367726240.00000000
   1.0900000000000021E-002    -339457472.00000000
   1.2000000000000011E-002    -309447008.00000000
   1.3100000000000001E-002    -278021152.00000000
   1.4200000000000018E-002    -245512768.00000000
   1.5300000000000008E-002    -212258384.00000000
   1.6400000000000026E-002    -178595472.00000000
   1.7500000000000016E-002    -144857328.00000000
   1.8600000000000005E-002    -111365024.00000000
   1.9700000000000023E-002    -78422856.000000000
   2.0800000000000013E-002    -46314844.000000000
   2.1900000000000003E-002    -15303873.000000000
   2.3000000000000020E-002     14369233.000000000
   2.4100000000000010E-002     42489100.000000000
   2.5200000000000000E-002     68869936.000000000
   2.6300000000000018E-002     93357568.000000000
   2.7400000000000008E-002     115829912.00000000
   2.8500000000000025E-002     136194096.00000000
   2.9600000000000015E-002     154384896.00000000
   3.0700000000000005E-002     170365072.00000000
   3.1800000000000023E-002     184126144.00000000
   3.2900000000000013E-002     195687952.00000000
   3.4000000000000002E-002     205095232.00000000
   3.5100000000000020E-002     212413632.00000000
   3.6200000000000010E-002     217726352.00000000
   3.7300000000000028E-002     221132720.00000000
   3.8400000000000017E-002     222747376.00000000
   3.9500000000000007E-002     222698288.00000000
   4.0600000000000025E-002     221122704.00000000
   4.1700000000000015E-002     218162960.00000000
   4.2800000000000005E-002     213963792.00000000
   4.3900000000000022E-002     208671296.00000000
   4.5000000000000012E-002     202431856.00000000
   4.6100000000000002E-002     195390576.00000000
   4.7200000000000020E-002     187688432.00000000
   4.8300000000000010E-002     179459488.00000000
   4.9400000000000027E-002     170829296.00000000
   5.0500000000000017E-002     161915632.00000000
   5.1600000000000007E-002     152828272.00000000
   5.2700000000000025E-002     143668768.00000000
   5.3800000000000014E-002     134528592.00000000
   5.4900000000000004E-002     125487976.00000000
   5.6000000000000022E-002     116616360.00000000
   5.7100000000000012E-002     107973528.00000000
   5.8200000000000002E-002     99611056.000000000
   5.9300000000000019E-002     91571896.000000000
   6.0400000000000009E-002     83890280.000000000
   6.1500000000000027E-002     76590936.000000000
   6.2600000000000017E-002     69690872.000000000
   6.3700000000000007E-002     63200760.000000000
   6.4800000000000024E-002     57126360.000000000
   6.5900000000000014E-002     51468680.000000000
   6.7000000000000004E-002     46223436.000000000
   6.8100000000000022E-002     41381540.000000000
   6.9200000000000012E-002     36930116.000000000
   7.0300000000000029E-002     32854072.000000000
   7.1400000000000019E-002     29137008.000000000
   7.2500000000000009E-002     25761382.000000000
   7.3600000000000027E-002     22708062.000000000
   7.4700000000000016E-002     19956584.000000000
   7.5800000000000006E-002     17485748.000000000
   7.6900000000000024E-002     15274590.000000000
   7.8000000000000014E-002     13302997.000000000
   7.9100000000000004E-002     11551595.000000000
   8.0200000000000021E-002     10001569.000000000
   8.1300000000000011E-002     8634453.0000000000
   8.2400000000000029E-002     7432545.0000000000
   8.3500000000000019E-002     6379253.0000000000
   8.4600000000000009E-002     5459201.5000000000
   8.5700000000000026E-002     4658256.0000000000
   8.6800000000000016E-002     3963344.0000000000
   8.7900000000000006E-002     3362435.2500000000
   8.9000000000000024E-002     2844561.5000000000
   9.0100000000000013E-002     2399767.0000000000
   9.1200000000000003E-002     2018901.8750000000
   9.2300000000000021E-002     1693627.0000000000
   9.3400000000000011E-002     1416551.7500000000
   9.4500000000000028E-002     1181266.5000000000
   9.5600000000000018E-002     982280.06250000000
   9.6700000000000008E-002     814728.62500000000
   9.7800000000000026E-002     674106.87500000000
   9.8900000000000016E-002     556265.06250000000
  0.10000000000000001          457616.96875000000
  0.10110000000000002          375256.53125000000
  0.10220000000000001          306840.00000000000
  0.10330000000000003          250315.89062500000
  0.10440000000000002          203763.79687500000
  0.10550000000000001          165434.15625000000
  0.10660000000000003          133919.29687500000
  0.10770000000000002          108140.77343750000
  0.10880000000000001          87180.226562500000
  0.10990000000000003          70138.953125000000
  0.11100000000000002          56190.773437500000
  0.11210000000000001          44779.390625000000
  0.11320000000000002          35638.800781250000
  0.11430000000000001          28564.931640625000
  0.11540000000000003          23118.851562500000
  0.11650000000000002          18637.087890625000
  0.11760000000000001          14621.657226562500
  0.11870000000000003          11083.748046875000
  0.11980000000000002          8429.9296875000000
  0.12090000000000001          6929.9218750000000
  0.12200000000000003          6231.9531250000000
  0.12310000000000001          5527.1582031250000
  0.12420000000000003          4244.3759765625000
  0.12530000000000002          2603.5346679687500
  0.12640000000000001          1443.8170166015625
  0.12750000000000003          1358.8431396484375
  0.12860000000000002          2040.3055419921875
  0.12970000000000001          2497.9975585937500
  0.13080000000000003          1987.3801269531250
  0.13190000000000002          765.03814697265625
  0.13300000000000001         -150.34576416015625
  0.13410000000000000         0.90768879652023315
  0.13520000000000004          943.08282470703125
  0.13630000000000003          1614.6762695312500
  0.13740000000000002          1236.2919921875000
  0.13850000000000001          108.44618225097656
  0.13960000000000000         -692.04791259765625
  0.14070000000000005         -413.53192138671875
  0.14180000000000004          601.27429199218750
  0.14290000000000003          1265.1560058593750
  0.14400000000000002          863.35406494140625
  0.14510000000000001         -214.97689819335938
  0.14620000000000000         -892.27056884765625
  0.14730000000000004         -530.46801757812500
  0.14840000000000003          419.67160034179688
  0.14950000000000002          903.32159423828125
  0.15060000000000001          382.23086547851562
  0.15170000000000000         -600.96643066406250
  0.15280000000000005         -1009.0573120117188
  0.15390000000000004         -421.07986450195312
  0.15500000000000003          519.02807617187500
  0.15610000000000002          793.42919921875000
  0.15720000000000001          97.544616699218750
  0.15830000000000000         -817.92047119140625
  0.15940000000000004         -947.89691162109375
  0.16050000000000003         -117.71008300781250
  0.16160000000000002          800.35815429687500
  0.16270000000000001          807.96154785156250
  0.16380000000000000         -152.04335021972656
  0.16490000000000005         -1091.2814941406250
  0.16600000000000004         -1001.6351318359375
  0.16710000000000003          74.923049926757812
  0.16820000000000002          1058.1068115234375
  0.16930000000000001          941.58679199218750
  0.17040000000000000         -149.51956176757812
  0.17150000000000004         -1070.6781005859375
  0.17260000000000003         -846.85241699218750
  0.17370000000000002          301.85711669921875
  0.17480000000000001          1176.8739013671875
  0.17590000000000000          845.84002685546875
  0.17700000000000005         -372.03610229492188
  0.17810000000000004         -1219.7672119140625
  0.17920000000000003         -799.68560791015625
  0.18030000000000002          486.77389526367188
  0.18140000000000001          1340.7585449218750
  0.18250000000000000          900.96057128906250
  0.18360000000000004         -371.31967163085938
  0.18470000000000003         -1169.5415039062500
  0.18580000000000002         -691.13183593750000
  0.18690000000000001          545.47528076171875
  0.18800000000000000          1253.6326904296875
  0.18910000000000005          717.05566406250000
  0.19020000000000004         -478.63525390625000
  0.19130000000000003         -1071.0820312500000
  0.19240000000000002         -446.55593872070312
  0.19350000000000001          730.23333740234375
  0.19460000000000005          1221.4758300781250
  0.19570000000000004          512.01989746093750
  0.19680000000000003         -660.99890136718750
  0.19790000000000002         -1085.3951416015625
  0.19900000000000001         -340.70266723632812
  0.20010000000000000          776.73889160156250
  0.20120000000000005          1095.2103271484375
  0.20230000000000004          290.12557983398438
  0.20340000000000003         -793.80407714843750
  0.20450000000000002         -1037.9522705078125
  0.20560000000000000         -223.62588500976562
  0.20670000000000005          760.98236083984375
  0.20780000000000004          868.87664794921875
  0.20890000000000003          1.6166896820068359
