 -0.12000000000000000          0.0000000000000000
 -0.11889999999999999          0.0000000000000000
 -0.11780000000000000          0.0000000000000000
 -0.11670000000000000          0.0000000000000000
 -0.11559999999999999          0.0000000000000000
 -0.11449999999999999          0.0000000000000000
 -0.11340000000000000          0.0000000000000000
 -0.11230000000000000          0.0000000000000000
 -0.11119999999999999          0.0000000000000000
 -0.11009999999999999          0.0000000000000000
 -0.10900000000000000         -6.3542935242169754E-023
 -0.10790000000000000         -7.7619404575902043E-022
 -0.10679999999999999         -3.9333815414928109E-021
 -0.10569999999999999         -7.8564839098462300E-021
 -0.10460000000000000          1.7925495012512813E-020
 -0.10349999999999999          1.7053697053200499E-019
 -0.10239999999999999          5.2336709972965125E-019
 -0.10130000000000000          5.9554057272885772E-019
 -0.10020000000000000         -1.5604272151299929E-018
  -9.9099999999999994E-002    -8.8318677844133929E-018
  -9.7999999999999990E-002    -1.9047206723850300E-017
  -9.6899999999999986E-002    -1.2398583731777730E-017
  -9.5799999999999996E-002     5.3274378754298085E-017
  -9.4699999999999993E-002     2.0284778108070487E-016
  -9.3599999999999989E-002     3.3355503659318185E-016
  -9.2499999999999999E-002     1.0493483548927661E-016
  -9.1399999999999995E-002    -9.3253033536778128E-016
  -9.0299999999999991E-002    -2.6968116613137376E-015
  -8.9200000000000002E-002    -3.5812082906626092E-015
  -8.8099999999999984E-002    -2.2970755318016335E-016
  -8.6999999999999994E-002     1.0106878441801248E-014
  -8.5899999999999990E-002     2.4050143590504357E-014
  -8.4799999999999986E-002     2.6983538965524509E-014
  -8.3699999999999997E-002    -3.2066492625955735E-015
  -8.2599999999999993E-002    -7.5987257935547503E-014
  -8.1499999999999989E-002    -1.5721259472196991E-013
  -8.0399999999999999E-002    -1.5525874043440663E-013
  -7.9299999999999995E-002     3.5967099253336049E-014
  -7.8199999999999992E-002     4.2414872612403509E-013
  -7.7100000000000002E-002     7.9612922157523691E-013
  -7.5999999999999984E-002     7.2225022186914178E-013
  -7.4899999999999994E-002    -1.8835570581542116E-013
  -7.3799999999999991E-002    -1.8268398946363895E-012
  -7.2699999999999987E-002    -3.2344884149521080E-012
  -7.1599999999999997E-002    -2.8314334384049733E-012
  -7.0499999999999993E-002     5.3923044415066235E-013
  -6.9399999999999989E-002     6.1717536463390399E-012
  -6.8300000000000000E-002     1.0778123185617439E-011
  -6.7199999999999996E-002     9.6553173442592843E-012
  -6.6099999999999992E-002    -1.3812331812156076E-013
  -6.5000000000000002E-002    -1.6232279409500450E-011
  -6.3899999999999985E-002    -2.9856020433705055E-011
  -6.2799999999999995E-002    -2.9321128858228462E-011
  -6.1699999999999991E-002    -7.3833647529220059E-012
  -6.0599999999999994E-002     3.1500524411143260E-011
  -5.9499999999999990E-002     6.9237449107362181E-011
  -5.8399999999999994E-002     8.0464281071446209E-011
  -5.7299999999999990E-002     4.5573080031946489E-011
  -5.6199999999999986E-002    -3.5338745818513928E-011
  -5.5099999999999996E-002    -1.3458174852321036E-010
  -5.3999999999999992E-002    -2.0054545524228473E-010
  -5.2899999999999989E-002    -1.7564681653592373E-010
  -5.1799999999999985E-002    -2.7220573017849858E-011
  -5.0699999999999995E-002     2.1749002598880907E-010
  -4.9599999999999991E-002     4.5215353683403237E-010
  -4.8499999999999988E-002     5.1477760942830741E-010
  -4.7399999999999998E-002     2.6881061265804362E-010
  -4.6299999999999994E-002    -2.8117941308636318E-010
  -4.5199999999999990E-002    -9.1083995901186654E-010
  -4.4099999999999986E-002    -1.2230749746322545E-009
  -4.2999999999999997E-002    -8.5557633200394889E-010
  -4.1899999999999993E-002     2.3441185104111639E-010
  -4.0799999999999989E-002     1.5990370139107313E-009
  -3.9699999999999985E-002     2.4269282139499637E-009
  -3.8599999999999995E-002     1.9864607736508333E-009
  -3.7499999999999992E-002     1.5861052748977755E-010
  -3.6399999999999988E-002    -2.3077071364951962E-009
  -3.5299999999999984E-002    -4.0716314764210892E-009
  -3.4199999999999994E-002    -3.9234304693991362E-009
  -3.3099999999999991E-002    -1.5361382166290127E-009
  -3.1999999999999987E-002     2.2349333494986467E-009
  -3.0899999999999997E-002     5.6999511777178213E-009
  -2.9799999999999993E-002     7.1043557703376337E-009
  -2.8699999999999989E-002     5.3788173914881554E-009
  -2.7599999999999986E-002     5.6986515506451951E-010
  -2.6499999999999996E-002    -6.0416316394196201E-009
  -2.5399999999999992E-002    -1.2022058903937705E-008
  -2.4299999999999988E-002    -1.4186051444653458E-008
  -2.3199999999999985E-002    -9.6791668013906929E-009
  -2.2099999999999995E-002     2.1627071244978424E-009
  -2.0999999999999991E-002     1.7970759103036471E-008
  -1.9899999999999987E-002     3.0152374819181205E-008
  -1.8799999999999983E-002     2.9720157002088854E-008
  -1.7699999999999994E-002     1.1689761159061618E-008
  -1.6599999999999990E-002    -1.9833565900739814E-008
  -1.5499999999999986E-002    -5.0829715547706655E-008
  -1.4399999999999996E-002    -6.2976880599308060E-008
  -1.3299999999999992E-002    -4.3799261106869380E-008
  -1.2199999999999989E-002     4.2981063153035848E-009
  -1.1099999999999985E-002     6.2184270177567669E-008
  -9.9999999999999950E-003     1.0165623365310239E-007
  -8.8999999999999913E-003     9.9169746192728780E-008
  -7.7999999999999875E-003     4.8401414431964440E-008
  -6.6999999999999837E-003    -3.4957189143369760E-008
  -5.5999999999999939E-003    -1.1837482816190459E-007
  -4.4999999999999901E-003    -1.6492646182086901E-007
  -3.3999999999999864E-003    -1.4786328961235995E-007
  -2.2999999999999826E-003    -6.2521614552224491E-008
  -1.1999999999999927E-003     6.7932703018414031E-008
  -9.9999999999988987E-005     1.9577315413243923E-007
   1.0000000000000148E-003     2.6297871613678581E-007
   2.1000000000000185E-003     2.2509094321776502E-007
   3.2000000000000084E-003     7.6852906261137832E-008
   4.3000000000000121E-003    -1.3395423081874469E-007
   5.4000000000000159E-003    -3.1719685011921683E-007
   6.5000000000000058E-003    -3.7768975857943587E-007
   7.6000000000000234E-003    -2.6490340587770334E-007
   8.7000000000000133E-003    -9.0910159400436896E-009
   9.8000000000000032E-003     2.7988579631710309E-007
   1.0900000000000021E-002     4.5716208774138067E-007
   1.2000000000000011E-002     4.1317130694551452E-007
   1.3100000000000001E-002     1.3571646206855803E-007
   1.4200000000000018E-002    -2.6892359983321512E-007
   1.5300000000000008E-002    -6.1045761867717374E-007
   1.6400000000000026E-002    -6.9364119781312183E-007
   1.7500000000000016E-002    -4.1011847429217596E-007
   1.8600000000000005E-002     1.9631337977443764E-007
   1.9700000000000023E-002     9.2223280034886557E-007
   2.0800000000000013E-002     1.4652034678874770E-006
   2.1900000000000003E-002     1.5357359188783448E-006
   2.3000000000000020E-002     9.8025918759958586E-007
   2.4100000000000010E-002    -1.3507769835996442E-007
   2.5200000000000000E-002    -1.5191651527857175E-006
   2.6300000000000018E-002    -2.7390460672904737E-006
   2.7400000000000008E-002    -3.3645571875240421E-006
   2.8500000000000025E-002    -3.1205247523757862E-006
   2.9600000000000015E-002    -1.9870446976710809E-006
   3.0700000000000005E-002    -2.0633156339044945E-007
   3.1800000000000023E-002     1.8113947817255394E-006
   3.2900000000000013E-002     3.6513588383968454E-006
   3.4000000000000002E-002     5.0616622502275277E-006
   3.5100000000000020E-002     6.0426255004131235E-006
   3.6200000000000010E-002     6.7899309215135872E-006
   3.7300000000000028E-002     7.4771278377738781E-006
   3.8400000000000017E-002     7.9467363320873119E-006
   3.9500000000000007E-002     7.4554513957991730E-006
   4.0600000000000025E-002     4.6356913117051590E-006
   4.1700000000000015E-002    -2.2408376025850885E-006
   4.2800000000000005E-002    -1.4762599676032551E-005
   4.3900000000000022E-002    -3.3854026696644723E-005
   4.5000000000000012E-002    -5.9494414017535746E-005
   4.6100000000000002E-002    -9.0857109171338379E-005
   4.7200000000000020E-002    -1.2685057299677283E-004
   4.8300000000000010E-002    -1.6684681759215891E-004
   4.9400000000000027E-002    -2.1129804372321814E-004
   5.0500000000000017E-002    -2.6201401487924159E-004
   5.1600000000000007E-002    -3.2205245224758983E-004
   5.2700000000000025E-002    -3.9535775431431830E-004
   5.3800000000000014E-002    -4.8637366853654385E-004
   5.4900000000000004E-002    -5.9982505626976490E-004
   5.6000000000000022E-002    -7.4074347503483295E-004
   5.7100000000000012E-002    -9.1469287872314453E-004
   5.8200000000000002E-002    -1.1280897306278348E-003
   5.9300000000000019E-002    -1.3885271036997437E-003
   6.0400000000000009E-002    -1.7050734022632241E-003
   6.1500000000000027E-002    -2.0885732956230640E-003
   6.2600000000000017E-002    -2.5519803166389465E-003
   6.3700000000000007E-002    -3.1106870155781507E-003
   6.4800000000000024E-002    -3.7827573250979185E-003
   6.5900000000000014E-002    -4.5889886096119881E-003
   6.7000000000000004E-002    -5.5528203956782818E-003
   6.8100000000000022E-002    -6.7002647556364536E-003
   6.9200000000000012E-002    -8.0601777881383896E-003
   7.0300000000000029E-002    -9.6650533378124237E-003
   7.1400000000000019E-002    -1.1552274227142334E-002
   7.2500000000000009E-002    -1.3765433803200722E-002
   7.3600000000000027E-002    -1.6355175524950027E-002
   7.4700000000000016E-002    -1.9379157572984695E-002
   7.5800000000000006E-002    -2.2901196032762527E-002
   7.6900000000000024E-002    -2.6990178972482681E-002
   7.8000000000000014E-002    -3.1719487160444260E-002
   7.9100000000000004E-002    -3.7167418748140335E-002
   8.0200000000000021E-002    -4.3418519198894501E-002
   8.1300000000000011E-002    -5.0565123558044434E-002
   8.2400000000000029E-002    -5.8708325028419495E-002
   8.3500000000000019E-002    -6.7957706749439240E-002
   8.4600000000000009E-002    -7.8429765999317169E-002
   8.5700000000000026E-002    -9.0245597064495087E-002
   8.6800000000000016E-002   -0.10352859646081924
   8.7900000000000006E-002   -0.11840270459651947
   8.9000000000000024E-002   -0.13499115407466888
   9.0100000000000013E-002   -0.15341572463512421
   9.1200000000000003E-002   -0.17379574477672577
   9.2300000000000021E-002   -0.19624620676040649
   9.3400000000000011E-002   -0.22087493538856506
   9.4500000000000028E-002   -0.24777911603450775
   9.5600000000000018E-002   -0.27704110741615295
   9.6700000000000008E-002   -0.30872359871864319
   9.7800000000000026E-002   -0.34286460280418396
   9.8900000000000016E-002   -0.37947246432304382
  0.10000000000000001        -0.41852080821990967
  0.10110000000000002        -0.45994386076927185
  0.10220000000000001        -0.50363272428512573
  0.10330000000000003        -0.54943078756332397
  0.10440000000000002        -0.59712970256805420
  0.10550000000000001        -0.64646685123443604
  0.10660000000000003        -0.69712191820144653
  0.10770000000000002        -0.74871307611465454
  0.10880000000000001        -0.80079025030136108
  0.10990000000000003        -0.85283154249191284
  0.11100000000000002        -0.90424430370330811
  0.11210000000000001        -0.95436722040176392
  0.11320000000000002         -1.0024760961532593
  0.11430000000000001         -1.0477893352508545
  0.11540000000000003         -1.0894732475280762
  0.11650000000000002         -1.1266446113586426
  0.11760000000000001         -1.1583766937255859
  0.11870000000000003         -1.1837093830108643
  0.11980000000000002         -1.2016608715057373
  0.12090000000000001         -1.2112436294555664
  0.12200000000000003         -1.2114807367324829
  0.12310000000000001         -1.2014254331588745
  0.12420000000000003         -1.1801868677139282
  0.12530000000000002         -1.1469459533691406
  0.12640000000000001         -1.1009646654129028
  0.12750000000000003         -1.0416017770767212
  0.12860000000000002        -0.96833664178848267
  0.12970000000000001        -0.88079452514648438
  0.13080000000000003        -0.77876651287078857
  0.13190000000000002        -0.66222596168518066
  0.13300000000000001        -0.53134298324584961
  0.13410000000000000        -0.38649207353591919
  0.13520000000000004        -0.22825917601585388
  0.13630000000000003         -5.7458467781543732E-002
  0.13740000000000002         0.12486972659826279
  0.13850000000000001         0.31746613979339600
  0.13960000000000000         0.51884919404983521
  0.14070000000000005         0.72732985019683838
  0.14180000000000004         0.94103395938873291
  0.14290000000000003          1.1579118967056274
  0.14400000000000002          1.3757569789886475
  0.14510000000000001          1.5922310352325439
  0.14620000000000000          1.8048992156982422
  0.14730000000000004          2.0112752914428711
  0.14840000000000003          2.2088537216186523
  0.14950000000000002          2.3951399326324463
  0.15060000000000001          2.5676901340484619
  0.15170000000000000          2.7241525650024414
  0.15280000000000005          2.8623161315917969
  0.15390000000000004          2.9801583290100098
  0.15500000000000003          3.0758764743804932
  0.15610000000000002          3.1479070186614990
  0.15720000000000001          3.1949458122253418
  0.15830000000000000          3.2159776687622070
  0.15940000000000004          3.2103137969970703
  0.16050000000000003          3.1776242256164551
  0.16160000000000002          3.1179473400115967
  0.16270000000000001          3.0316798686981201
  0.16380000000000000          2.9195644855499268
  0.16490000000000005          2.7826743125915527
  0.16600000000000004          2.6224045753479004
  0.16710000000000003          2.4404692649841309
  0.16820000000000002          2.2388737201690674
  0.16930000000000001          2.0198745727539062
  0.17040000000000000          1.7859346866607666
  0.17150000000000004          1.5396864414215088
  0.17260000000000003          1.2839013338088989
  0.17370000000000002          1.0214498043060303
  0.17480000000000001         0.75525242090225220
  0.17590000000000000         0.48822730779647827
  0.17700000000000005         0.22323532402515411
  0.17810000000000004         -3.6959182471036911E-002
  0.17920000000000003        -0.28971430659294128
  0.18030000000000002        -0.53254985809326172
  0.18140000000000001        -0.76318645477294922
  0.18250000000000000        -0.97958117723464966
  0.18360000000000004         -1.1799435615539551
  0.18470000000000003         -1.3627476692199707
  0.18580000000000002         -1.5267454385757446
  0.18690000000000001         -1.6709749698638916
  0.18800000000000000         -1.7947716712951660
  0.18910000000000005         -1.8977717161178589
  0.19020000000000004         -1.9799040555953979
  0.19130000000000003         -2.0413720607757568
  0.19240000000000002         -2.0826258659362793
  0.19350000000000001         -2.1043379306793213
  0.19460000000000005         -2.1073870658874512
  0.19570000000000004         -2.0928440093994141
  0.19680000000000003         -2.0619466304779053
  0.19790000000000002         -2.0160636901855469
  0.19900000000000001         -1.9566612243652344
  0.20010000000000000         -1.8852721452713013
  0.20120000000000005         -1.8034709692001343
  0.20230000000000004         -1.7128515243530273
  0.20340000000000003         -1.6150046586990356
  0.20450000000000002         -1.5114959478378296
  0.20560000000000000         -1.4038380384445190
  0.20670000000000005         -1.2934679985046387
  0.20780000000000004         -1.1817299127578735
  0.20890000000000003         -1.0698632001876831
