 -0.12000000000000000          0.0000000000000000
 -0.11889999999999999          0.0000000000000000
 -0.11780000000000000          0.0000000000000000
 -0.11670000000000000          0.0000000000000000
 -0.11559999999999999          0.0000000000000000
 -0.11449999999999999          0.0000000000000000
 -0.11340000000000000          0.0000000000000000
 -0.11230000000000000          0.0000000000000000
 -0.11119999999999999          0.0000000000000000
 -0.11009999999999999          0.0000000000000000
 -0.10900000000000000          0.0000000000000000
 -0.10790000000000000          3.6312400395612959E-028
 -0.10679999999999999          2.8782154039276332E-026
 -0.10569999999999999          5.9164222764929851E-025
 -0.10460000000000000          5.9825349340225214E-024
 -0.10349999999999999          3.7209114239765899E-023
 -0.10239999999999999          1.5627552889126809E-022
 -0.10130000000000000          4.5424377971053555E-022
 -0.10020000000000000          8.6301584979570428E-022
  -9.9099999999999994E-002     7.2618162751965250E-022
  -9.7999999999999990E-002    -1.2946826575907552E-021
  -9.6899999999999986E-002    -5.4947689582176131E-021
  -9.5799999999999996E-002    -7.1894265615140019E-021
  -9.4699999999999993E-002     4.3043857787134819E-021
  -9.3599999999999989E-002     3.3660602838288138E-020
  -9.2499999999999999E-002     5.6148302659412070E-020
  -9.1399999999999995E-002     1.7869464835122283E-020
  -9.0299999999999991E-002    -1.0015780737779089E-019
  -8.9200000000000002E-002    -2.1672618017499200E-019
  -8.8099999999999984E-002    -2.7664722129651575E-019
  -8.6999999999999994E-002    -5.0826924409296853E-019
  -8.5899999999999990E-002    -8.9178124704431118E-019
  -8.4799999999999986E-002     1.1599007790626822E-018
  -8.3699999999999997E-002     1.1968038704485717E-017
  -8.2599999999999993E-002     3.1096799646469458E-017
  -8.1499999999999989E-002     2.2103692026792941E-017
  -8.0399999999999999E-002    -1.0242589742972977E-016
  -7.9299999999999995E-002    -3.8133150646658704E-016
  -7.8199999999999992E-002    -5.1774147747090261E-016
  -7.7100000000000002E-002     3.4640389112831915E-016
  -7.5999999999999984E-002     2.9895555652472436E-015
  -7.4899999999999994E-002     5.8580857924413719E-015
  -7.3799999999999991E-002     2.5678652946543737E-015
  -7.2699999999999987E-002    -1.5414852757417684E-014
  -7.1599999999999997E-002    -4.4521864358193150E-014
  -7.0499999999999993E-002    -4.8248423079088124E-014
  -6.9399999999999989E-002     3.9682717696684286E-014
  -6.8300000000000000E-002     2.4302185697849810E-013
  -6.7199999999999996E-002     4.0592729915259196E-013
  -6.6099999999999992E-002     1.3397121682422880E-013
  -6.5000000000000002E-002    -9.2201767054600481E-013
  -6.3899999999999985E-002    -2.3354770808253766E-012
  -6.2799999999999995E-002    -2.2647346237941735E-012
  -6.1699999999999991E-002     1.7920955518169190E-012
  -6.0599999999999994E-002     9.8245179352973722E-012
  -5.9499999999999990E-002     1.5206412518065093E-011
  -5.8399999999999994E-002     5.0501837954575191E-012
  -5.7299999999999990E-002    -2.8758396705685918E-011
  -5.6199999999999986E-002    -6.9700335780797928E-011
  -5.5099999999999996E-002    -6.6419814093165996E-011
  -5.3999999999999992E-002     3.8689409315173506E-011
  -5.2899999999999989E-002     2.3280009864290463E-010
  -5.1799999999999985E-002     3.5818253918407095E-010
  -5.0699999999999995E-002     1.5094490934952631E-010
  -4.9599999999999991E-002    -5.2207466127995872E-010
  -4.8499999999999988E-002    -1.3218435235273773E-009
  -4.7399999999999998E-002    -1.3393226527824709E-009
  -4.6299999999999994E-002     3.4911279422900066E-010
  -4.5199999999999990E-002     3.4909919399694900E-009
  -4.4099999999999986E-002     5.7096705141645998E-009
  -4.2999999999999997E-002     3.2770486324551484E-009
  -4.1899999999999993E-002    -5.6252389413202764E-009
  -4.0799999999999989E-002    -1.6773579858408993E-008
  -3.9699999999999985E-002    -1.9158148845122014E-008
  -3.8599999999999995E-002    -1.7021178910781032E-009
  -3.7499999999999992E-002     3.3800933607608386E-008
  -3.6399999999999988E-002     6.3302984187885158E-008
  -3.5299999999999984E-002     4.8654314355189854E-008
  -3.4199999999999994E-002    -3.1369442154982607E-008
  -3.3099999999999991E-002    -1.4367932976711018E-007
  -3.1999999999999987E-002    -1.9388585315027740E-007
  -3.0899999999999997E-002    -8.0824698045489640E-008
  -2.9799999999999993E-002     2.0078414308954962E-007
  -2.8699999999999989E-002     4.8492341875316924E-007
  -2.7599999999999986E-002     4.8542329977863119E-007
  -2.6499999999999996E-002     6.6526206765615825E-009
  -2.5399999999999992E-002    -7.9841316846795962E-007
  -2.4299999999999988E-002    -1.3563029597207787E-006
  -2.3199999999999985E-002    -9.7610552529658889E-007
  -2.2099999999999995E-002     5.4847953379066894E-007
  -2.0999999999999991E-002     2.4576145278842887E-006
  -1.9899999999999987E-002     3.2023699532146566E-006
  -1.8799999999999983E-002     1.4695710888190661E-006
  -1.7699999999999994E-002    -2.4757334813330090E-006
  -1.6599999999999990E-002    -6.2355270529224072E-006
  -1.5499999999999986E-002    -6.4155824475164991E-006
  -1.4399999999999996E-002    -1.2020598205708666E-006
  -1.3299999999999992E-002     7.3243490987806581E-006
  -1.2199999999999989E-002     1.3345616025617346E-005
  -1.1099999999999985E-002     1.0822983313119039E-005
  -9.9999999999999950E-003    -1.4095795677349088E-006
  -8.8999999999999913E-003    -1.6858226445037872E-005
  -7.7999999999999875E-003    -2.4154955099220388E-005
  -6.6999999999999837E-003    -1.4922655282134656E-005
  -5.5999999999999939E-003     8.3835502664442174E-006
  -4.4999999999999901E-003     3.1364426831714809E-005
  -3.3999999999999864E-003     3.6199853639118373E-005
  -2.2999999999999826E-003     1.5237473235174548E-005
  -1.1999999999999927E-003    -2.0516587028396316E-005
  -9.9999999999988987E-005    -4.6404013119172305E-005
   1.0000000000000148E-003    -4.1474591853329912E-005
   2.1000000000000185E-003    -6.1619516600330826E-006
   3.2000000000000084E-003     3.4713793866103515E-005
   4.3000000000000121E-003     4.9098802264779806E-005
   5.4000000000000159E-003     2.4027809558901936E-005
   6.5000000000000058E-003    -2.0218052668496966E-005
   7.6000000000000234E-003    -4.3102601921418682E-005
   8.7000000000000133E-003    -1.7830294382292777E-005
   9.8000000000000032E-003     4.0015973354456946E-005
   1.0900000000000021E-002     7.6583914051298052E-005
   1.2000000000000011E-002     4.0675087802810594E-005
   1.3100000000000001E-002    -6.6564345615915954E-005
   1.4200000000000018E-002    -1.7550773918628693E-004
   1.5300000000000008E-002    -1.8788686429616064E-004
   1.6400000000000026E-002    -5.1556886319303885E-005
   1.7500000000000016E-002     1.8459570128470659E-004
   1.8600000000000005E-002     3.8362009217962623E-004
   1.9700000000000023E-002     4.0153492591343820E-004
   2.0800000000000013E-002     1.8279525102116168E-004
   2.1900000000000003E-002    -1.9813892140518874E-004
   2.3000000000000020E-002    -5.7669740635901690E-004
   2.4100000000000010E-002    -7.8283739276230335E-004
   2.5200000000000000E-002    -7.0353358751162887E-004
   2.6300000000000018E-002    -2.9201523284427822E-004
   2.7400000000000008E-002     4.3664118857122958E-004
   2.8500000000000025E-002     1.3557563070207834E-003
   2.9600000000000015E-002     2.1236126776784658E-003
   3.0700000000000005E-002     2.1530548110604286E-003
   3.1800000000000023E-002     8.3571416325867176E-004
   3.2900000000000013E-002    -1.9358943682163954E-003
   3.4000000000000002E-002    -5.2157049067318439E-003
   3.5100000000000020E-002    -6.9508221931755543E-003
   3.6200000000000010E-002    -4.8686610534787178E-003
   3.7300000000000028E-002     1.8297540955245495E-003
   3.8400000000000017E-002     1.0915965773165226E-002
   3.9500000000000007E-002     1.7110226675868034E-002
   4.0600000000000025E-002     1.4467926695942879E-002
   4.1700000000000015E-002     5.3835281869396567E-004
   4.2800000000000005E-002    -2.0091041922569275E-002
   4.3900000000000022E-002    -3.5904571413993835E-002
   4.5000000000000012E-002    -3.3798962831497192E-002
   4.6100000000000002E-002    -7.8990729525685310E-003
   4.7200000000000020E-002     3.3278327435255051E-002
   4.8300000000000010E-002     6.7260816693305969E-002
   4.9400000000000027E-002     6.8260639905929565E-002
   5.0500000000000017E-002     2.4084515869617462E-002
   5.1600000000000007E-002    -5.0613045692443848E-002
   5.2700000000000025E-002   -0.11546640098094940
   5.3800000000000014E-002   -0.12392423301935196
   5.4900000000000004E-002    -5.3324539214372635E-002
   5.6000000000000022E-002     7.2305016219615936E-002
   5.7100000000000012E-002    0.18489165604114532
   5.8200000000000002E-002    0.20610706508159637
   5.9300000000000019E-002     9.7815304994583130E-002
   6.0400000000000009E-002   -0.10110155493021011
   6.1500000000000027E-002   -0.28078868985176086
   6.2600000000000017E-002   -0.31676098704338074
   6.3700000000000007E-002   -0.15100663900375366
   6.4800000000000024E-002    0.15167458355426788
   6.5900000000000014E-002    0.41745704412460327
   6.7000000000000004E-002    0.45593851804733276
   6.8100000000000022E-002    0.18747362494468689
   6.9200000000000012E-002   -0.27381414175033569
   7.0300000000000029E-002   -0.65015661716461182
   7.1400000000000019E-002   -0.65158021450042725
   7.2500000000000009E-002   -0.17517866194248199
   7.3600000000000027E-002    0.57291525602340698
   7.4700000000000016E-002     1.1367158889770508
   7.5800000000000006E-002     1.0569951534271240
   7.6900000000000024E-002    0.18568383157253265
   7.8000000000000014E-002    -1.1271170377731323
   7.9100000000000004E-002    -2.1309375762939453
   8.0200000000000021E-002    -2.0629651546478271
   8.1300000000000011E-002   -0.64106661081314087
   8.2400000000000029E-002     1.6345362663269043
   8.3500000000000019E-002     3.6081619262695312
   8.4600000000000009E-002     4.0350809097290039
   8.5700000000000026E-002     2.3190310001373291
   8.6800000000000016E-002    -1.0083791017532349
   8.7900000000000006E-002    -4.4107708930969238
   8.9000000000000024E-002    -6.0963993072509766
   9.0100000000000013E-002    -5.0268573760986328
   9.1200000000000003E-002    -1.5976704359054565
   9.2300000000000021E-002     2.4758145809173584
   9.3400000000000011E-002     5.0948343276977539
   9.4500000000000028E-002     5.0409975051879883
   9.5600000000000018E-002     2.7935957908630371
   9.6700000000000008E-002    0.31077933311462402
   9.7800000000000026E-002   -0.21763630211353302
   9.8900000000000016E-002     2.0433292388916016
  0.10000000000000001          5.6667141914367676
  0.10110000000000002          7.4618282318115234
  0.10220000000000001          4.2873983383178711
  0.10330000000000003         -4.7915649414062500
  0.10440000000000002         -17.348575592041016
  0.10550000000000001         -28.334356307983398
  0.10660000000000003         -32.499313354492188
  0.10770000000000002         -27.171493530273438
  0.10880000000000001         -13.661992073059082
  0.10990000000000003          3.7487430572509766
  0.11100000000000002          20.830196380615234
  0.11210000000000001          36.636222839355469
  0.11320000000000002          54.798053741455078
  0.11430000000000001          81.749351501464844
  0.11540000000000003          122.69185638427734
  0.11650000000000002          177.78717041015625
  0.11760000000000001          241.31808471679688
  0.11870000000000003          305.01666259765625
  0.11980000000000002          364.16293334960938
  0.12090000000000001          422.97943115234375
  0.12200000000000003          495.72601318359375
  0.12310000000000001          602.11132812500000
  0.12420000000000003          759.08178710937500
  0.12530000000000002          973.66119384765625
  0.12640000000000001          1241.5203857421875
  0.12750000000000003          1552.9890136718750
  0.12860000000000002          1903.7945556640625
  0.12970000000000001          2304.5969238281250
  0.13080000000000003          2783.4692382812500
  0.13190000000000002          3379.2978515625000
  0.13300000000000001          4129.5083007812500
  0.13410000000000000          5059.3867187500000
  0.13520000000000004          6179.9804687500000
  0.13630000000000003          7496.8754882812500
  0.13740000000000002          9025.5957031250000
  0.13850000000000001          10804.930664062500
  0.13960000000000000          12900.041015625000
  0.14070000000000005          15392.957031250000
  0.14180000000000004          18365.599609375000
  0.14290000000000003          21885.537109375000
  0.14400000000000002          26003.671875000000
  0.14510000000000001          30766.412109375000
  0.14620000000000000          36235.839843750000
  0.14730000000000004          42506.316406250000
  0.14840000000000003          49707.714843750000
  0.14950000000000002          57992.113281250000
  0.15060000000000001          67512.171875000000
  0.15170000000000000          78403.546875000000
  0.15280000000000005          90782.234375000000
  0.15390000000000004          104758.22656250000
  0.15500000000000003          120457.27343750000
  0.15610000000000002          138036.17187500000
  0.15720000000000001          157681.06250000000
  0.15830000000000000          179588.34375000000
  0.15940000000000004          203936.98437500000
  0.16050000000000003          230870.65625000000
  0.16160000000000002          260496.87500000000
  0.16270000000000001          292904.25000000000
  0.16380000000000000          328183.43750000000
  0.16490000000000005          366437.53125000000
  0.16600000000000004          407769.28125000000
  0.16710000000000003          452249.46875000000
  0.16820000000000002          499882.15625000000
  0.16930000000000001          550583.12500000000
  0.17040000000000000          604185.81250000000
  0.17150000000000004          660461.06250000000
  0.17260000000000003          719148.68750000000
  0.17370000000000002          779964.18750000000
  0.17480000000000001          842586.00000000000
  0.17590000000000000          906615.00000000000
  0.17700000000000005          971529.68750000000
  0.17810000000000004          1036669.1875000000
  0.17920000000000003          1101242.1250000000
  0.18030000000000002          1164366.7500000000
  0.18140000000000001          1225113.3750000000
  0.18250000000000000          1282521.6250000000
  0.18360000000000004          1335586.8750000000
  0.18470000000000003          1383251.2500000000
  0.18580000000000002          1424359.0000000000
  0.18690000000000001          1457673.1250000000
  0.18800000000000000          1481881.1250000000
  0.18910000000000005          1495659.1250000000
  0.19020000000000004          1497703.1250000000
  0.19130000000000003          1486785.2500000000
  0.19240000000000002          1461747.0000000000
  0.19350000000000001          1421545.5000000000
  0.19460000000000005          1365184.3750000000
  0.19570000000000004          1291766.6250000000
  0.19680000000000003          1200516.0000000000
  0.19790000000000002          1090843.3750000000
  0.19900000000000001          962392.68750000000
  0.20010000000000000          815069.06250000000
  0.20120000000000005          649051.31250000000
  0.20230000000000004          464756.71875000000
  0.20340000000000003          262843.25000000000
  0.20450000000000002          44239.339843750000
  0.20560000000000000         -189833.59375000000
  0.20670000000000005         -437850.81250000000
  0.20780000000000004         -697940.75000000000
  0.20890000000000003         -967943.50000000000
