 -0.12000000000000000         -1.5028086490929127E-003
 -0.11889999999999999         -3.6946092732250690E-003
 -0.11780000000000000         -3.9678276516497135E-003
 -0.11670000000000000         -2.8286485467106104E-003
 -0.11559999999999999         -2.1282352972775698E-003
 -0.11449999999999999         -3.1894166022539139E-003
 -0.11340000000000000         -5.5631441064178944E-003
 -0.11230000000000000         -7.6379310339689255E-003
 -0.11119999999999999         -8.4131816402077675E-003
 -0.11009999999999999         -8.5876407101750374E-003
 -0.10900000000000000         -9.8723266273736954E-003
 -0.10790000000000000         -1.3288097456097603E-002
 -0.10679999999999999         -1.8224792554974556E-002
 -0.10569999999999999         -2.3201225325465202E-002
 -0.10460000000000000         -2.7489500120282173E-002
 -0.10349999999999999         -3.1911816447973251E-002
 -0.10239999999999999         -3.8037650287151337E-002
 -0.10130000000000000         -4.6693921089172363E-002
 -0.10020000000000000         -5.7374261319637299E-002
  -9.9099999999999994E-002    -6.9125749170780182E-002
  -9.7999999999999990E-002    -8.1910938024520874E-002
  -9.6899999999999986E-002    -9.6970923244953156E-002
  -9.5799999999999996E-002   -0.11582335829734802
  -9.4699999999999993E-002   -0.13900600373744965
  -9.3599999999999989E-002   -0.16593956947326660
  -9.2499999999999999E-002   -0.19606499373912811
  -9.1399999999999995E-002   -0.23002769052982330
  -9.0299999999999991E-002   -0.26962232589721680
  -8.9200000000000002E-002   -0.31654143333435059
  -8.8099999999999984E-002   -0.37126702070236206
  -8.6999999999999994E-002   -0.43331351876258850
  -8.5899999999999990E-002   -0.50259584188461304
  -8.4799999999999986E-002   -0.58047926425933838
  -8.3699999999999997E-002   -0.66937345266342163
  -8.2599999999999993E-002   -0.77125120162963867
  -8.1499999999999989E-002   -0.88662064075469971
  -8.0399999999999999E-002    -1.0150299072265625
  -7.9299999999999995E-002    -1.1565881967544556
  -7.8199999999999992E-002    -1.3129183053970337
  -7.7100000000000002E-002    -1.4865304231643677
  -7.5999999999999984E-002    -1.6792360544204712
  -7.4899999999999994E-002    -1.8912124633789062
  -7.3799999999999991E-002    -2.1216480731964111
  -7.2699999999999987E-002    -2.3702695369720459
  -7.1599999999999997E-002    -2.6381490230560303
  -7.0499999999999993E-002    -2.9269318580627441
  -6.9399999999999989E-002    -3.2372601032257080
  -6.8300000000000000E-002    -3.5679659843444824
  -6.7199999999999996E-002    -3.9167838096618652
  -6.6099999999999992E-002    -4.2817649841308594
  -6.5000000000000002E-002    -4.6618900299072266
  -6.3899999999999985E-002    -5.0562410354614258
  -6.2799999999999995E-002    -5.4625892639160156
  -6.1699999999999991E-002    -5.8768410682678223
  -6.0599999999999994E-002    -6.2938399314880371
  -5.9499999999999990E-002    -6.7086124420166016
  -5.8399999999999994E-002    -7.1167225837707520
  -5.7299999999999990E-002    -7.5133881568908691
  -5.6199999999999986E-002    -7.8923487663269043
  -5.5099999999999996E-002    -8.2457065582275391
  -5.3999999999999992E-002    -8.5648822784423828
  -5.2899999999999989E-002    -8.8416910171508789
  -5.1799999999999985E-002    -9.0684461593627930
  -5.0699999999999995E-002    -9.2370605468750000
  -4.9599999999999991E-002    -9.3382539749145508
  -4.8499999999999988E-002    -9.3618240356445312
  -4.7399999999999998E-002    -9.2978391647338867
  -4.6299999999999994E-002    -9.1376171112060547
  -4.5199999999999990E-002    -8.8735980987548828
  -4.4099999999999986E-002    -8.4984683990478516
  -4.2999999999999997E-002    -8.0046157836914062
  -4.1899999999999993E-002    -7.3847537040710449
  -4.0799999999999989E-002    -6.6332716941833496
  -3.9699999999999985E-002    -5.7470450401306152
  -3.8599999999999995E-002    -4.7250933647155762
  -3.7499999999999992E-002    -3.5676286220550537
  -3.6399999999999988E-002    -2.2756583690643311
  -3.5299999999999984E-002   -0.85176801681518555
  -3.4199999999999994E-002    0.69864726066589355
  -3.3099999999999991E-002     2.3667771816253662
  -3.1999999999999987E-002     4.1410255432128906
  -3.0899999999999997E-002     6.0081434249877930
  -2.9799999999999993E-002     7.9536809921264648
  -2.8699999999999989E-002     9.9613952636718750
  -2.7599999999999986E-002     12.012233734130859
  -2.6499999999999996E-002     14.084183692932129
  -2.5399999999999992E-002     16.153244018554688
  -2.4299999999999988E-002     18.194763183593750
  -2.3199999999999985E-002     20.184076309204102
  -2.2099999999999995E-002     22.096073150634766
  -2.0999999999999991E-002     23.904546737670898
  -1.9899999999999987E-002     25.582410812377930
  -1.8799999999999983E-002     27.102949142456055
  -1.7699999999999994E-002     28.441209793090820
  -1.6599999999999990E-002     29.574588775634766
  -1.5499999999999986E-002     30.482473373413086
  -1.4399999999999996E-002     31.145784378051758
  -1.3299999999999992E-002     31.547330856323242
  -1.2199999999999989E-002     31.673000335693359
  -1.1099999999999985E-002     31.512865066528320
  -9.9999999999999950E-003     31.061407089233398
  -8.8999999999999913E-003     30.316942214965820
  -7.7999999999999875E-003     29.281032562255859
  -6.6999999999999837E-003     27.958688735961914
  -5.5999999999999939E-003     26.359106063842773
  -4.4999999999999901E-003     24.496215820312500
  -3.3999999999999864E-003     22.388387680053711
  -2.2999999999999826E-003     20.057376861572266
  -1.1999999999999927E-003     17.527521133422852
  -9.9999999999988987E-005     14.825583457946777
   1.0000000000000148E-003     11.981071472167969
   2.1000000000000185E-003     9.0262374877929688
   3.2000000000000084E-003     5.9952516555786133
   4.3000000000000121E-003     2.9230189323425293
   5.4000000000000159E-003   -0.15576978027820587
   6.5000000000000058E-003    -3.2069156169891357
   7.6000000000000234E-003    -6.1966438293457031
   8.7000000000000133E-003    -9.0917501449584961
   9.8000000000000032E-003    -11.860457420349121
   1.0900000000000021E-002    -14.473535537719727
   1.2000000000000011E-002    -16.904989242553711
   1.3100000000000001E-002    -19.132085800170898
   1.4200000000000018E-002    -21.135051727294922
   1.5300000000000008E-002    -22.897092819213867
   1.6400000000000026E-002    -24.404882431030273
   1.7500000000000016E-002    -25.649301528930664
   1.8600000000000005E-002    -26.625600814819336
   1.9700000000000023E-002    -27.332952499389648
   2.0800000000000013E-002    -27.773834228515625
   2.1900000000000003E-002    -27.953678131103516
   2.3000000000000020E-002    -27.881050109863281
   2.4100000000000010E-002    -27.567888259887695
   2.5200000000000000E-002    -27.029270172119141
   2.6300000000000018E-002    -26.282670974731445
   2.7400000000000008E-002    -25.347114562988281
   2.8500000000000025E-002    -24.242679595947266
   2.9600000000000015E-002    -22.990505218505859
   3.0700000000000005E-002    -21.612848281860352
   3.1800000000000023E-002    -20.132720947265625
   3.2900000000000013E-002    -18.573118209838867
   3.4000000000000002E-002    -16.956262588500977
   3.5100000000000020E-002    -15.303274154663086
   3.6200000000000010E-002    -13.634274482727051
   3.7300000000000028E-002    -11.968523025512695
   3.8400000000000017E-002    -10.324178695678711
   3.9500000000000007E-002    -8.7177410125732422
   4.0600000000000025E-002    -7.1636171340942383
   4.1700000000000015E-002    -5.6741070747375488
   4.2800000000000005E-002    -4.2596964836120605
   4.3900000000000022E-002    -2.9292993545532227
   4.5000000000000012E-002    -1.6902241706848145
   4.6100000000000002E-002   -0.54790246486663818
   4.7200000000000020E-002    0.49426352977752686
   4.8300000000000010E-002     1.4346958398818970
   4.9400000000000027E-002     2.2732260227203369
   5.0500000000000017E-002     3.0107598304748535
   5.1600000000000007E-002     3.6492376327514648
   5.2700000000000025E-002     4.1917719841003418
   5.3800000000000014E-002     4.6426439285278320
   5.4900000000000004E-002     5.0069861412048340
   5.6000000000000022E-002     5.2903804779052734
   5.7100000000000012E-002     5.4985942840576172
   5.8200000000000002E-002     5.6376085281372070
   5.9300000000000019E-002     5.7137398719787598
   6.0400000000000009E-002     5.7335915565490723
   6.1500000000000027E-002     5.7037944793701172
   6.2600000000000017E-002     5.6306905746459961
   6.3700000000000007E-002     5.5202121734619141
   6.4800000000000024E-002     5.3779706954956055
   6.5900000000000014E-002     5.2094082832336426
   6.7000000000000004E-002     5.0197887420654297
   6.8100000000000022E-002     4.8140096664428711
   6.9200000000000012E-002     4.5964150428771973
   7.0300000000000029E-002     4.3707547187805176
   7.1400000000000019E-002     4.1403164863586426
   7.2500000000000009E-002     3.9080958366394043
   7.3600000000000027E-002     3.6768336296081543
   7.4700000000000016E-002     3.4489252567291260
   7.5800000000000006E-002     3.2263126373291016
   7.6900000000000024E-002     3.0104744434356689
   7.8000000000000014E-002     2.8025391101837158
   7.9100000000000004E-002     2.6034190654754639
   8.0200000000000021E-002     2.4138705730438232
   8.1300000000000011E-002     2.2344546318054199
   8.2400000000000029E-002     2.0654788017272949
   8.3500000000000019E-002     1.9070011377334595
   8.4600000000000009E-002     1.7588911056518555
   8.5700000000000026E-002     1.6209135055541992
   8.6800000000000016E-002     1.4927803277969360
   8.7900000000000006E-002     1.3741589784622192
   8.9000000000000024E-002     1.2646636962890625
   9.0100000000000013E-002     1.1638511419296265
   9.1200000000000003E-002     1.0712206363677979
   9.2300000000000021E-002    0.98623126745223999
   9.3400000000000011E-002    0.90834194421768188
   9.4500000000000028E-002    0.83704400062561035
   9.5600000000000018E-002    0.77186936140060425
   9.6700000000000008E-002    0.71237099170684814
   9.7800000000000026E-002    0.65808981657028198
   9.8900000000000016E-002    0.60855036973953247
  0.10000000000000001         0.56329739093780518
  0.10110000000000002         0.52193969488143921
  0.10220000000000001         0.48415875434875488
  0.10330000000000003         0.44966873526573181
  0.10440000000000002         0.41817447543144226
  0.10550000000000001         0.38937288522720337
  0.10660000000000003         0.36299639940261841
  0.10770000000000002         0.33884876966476440
  0.10880000000000001         0.31677946448326111
  0.10990000000000003         0.29661568999290466
  0.11100000000000002         0.27812713384628296
  0.11210000000000001         0.26107299327850342
  0.11320000000000002         0.24529108405113220
  0.11430000000000001         0.23072955012321472
  0.11540000000000003         0.21737325191497803
  0.11650000000000002         0.20513032376766205
  0.11760000000000001         0.19380044937133789
  0.11870000000000003         0.18317230045795441
  0.11980000000000002         0.17316044867038727
  0.12090000000000001         0.16383524239063263
  0.12200000000000003         0.15529637038707733
  0.12310000000000001         0.14750701189041138
  0.12420000000000003         0.14026126265525818
  0.12530000000000002         0.13333208858966827
  0.12640000000000001         0.12666296958923340
  0.12750000000000003         0.12040350586175919
  0.12860000000000002         0.11473955959081650
  0.12970000000000001         0.10968226939439774
  0.13080000000000003         0.10502966493368149
  0.13190000000000002         0.10055014491081238
  0.13300000000000001          9.6207298338413239E-002
  0.13410000000000000          9.2194356024265289E-002
  0.13520000000000004          8.8734127581119537E-002
  0.13630000000000003          8.5841372609138489E-002
  0.13740000000000002          8.3289109170436859E-002
  0.13850000000000001          8.0816343426704407E-002
  0.13960000000000000          7.8368030488491058E-002
  0.14070000000000005          7.6122023165225983E-002
  0.14180000000000004          7.4275620281696320E-002
  0.14290000000000003          7.2813183069229126E-002
  0.14400000000000002          7.1495182812213898E-002
  0.14510000000000001          7.0079922676086426E-002
  0.14620000000000000          6.8546406924724579E-002
  0.14730000000000004          6.7084670066833496E-002
  0.14840000000000003          6.5864883363246918E-002
  0.14950000000000002          6.4827688038349152E-002
  0.15060000000000001          6.3716992735862732E-002
  0.15170000000000000          6.2322799116373062E-002
  0.15280000000000005          6.0678843408823013E-002
  0.15390000000000004          5.9006590396165848E-002
  0.15500000000000003          5.7465925812721252E-002
  0.15610000000000002          5.5977344512939453E-002
  0.15720000000000001          5.4304752498865128E-002
  0.15830000000000000          5.2313197404146194E-002
  0.15940000000000004          5.0127591937780380E-002
  0.16050000000000003          4.8019334673881531E-002
  0.16160000000000002          4.6136058866977692E-002
  0.16270000000000001          4.4358689337968826E-002
  0.16380000000000000          4.2439196258783340E-002
  0.16490000000000005          4.0277652442455292E-002
  0.16600000000000004          3.8046866655349731E-002
  0.16710000000000003          3.6029785871505737E-002
  0.16820000000000002          3.4336719661951065E-002
  0.16930000000000001          3.2799031585454941E-002
  0.17040000000000000          3.1153948977589607E-002
  0.17150000000000004          2.9329843819141388E-002
  0.17260000000000003          2.7533099055290222E-002
  0.17370000000000002          2.6043122634291649E-002
  0.17480000000000001          2.4926476180553436E-002
  0.17590000000000000          2.3967638611793518E-002
  0.17700000000000005          2.2890156134963036E-002
  0.17810000000000004          2.1638782694935799E-002
  0.17920000000000003          2.0429944619536400E-002
  0.18030000000000002          1.9519139081239700E-002
  0.18140000000000001          1.8928708508610725E-002
  0.18250000000000000          1.8420442938804626E-002
  0.18360000000000004          1.7741888761520386E-002
  0.18470000000000003          1.6889523714780807E-002
  0.18580000000000002          1.6115035861730576E-002
  0.18690000000000001          1.5668354928493500E-002
  0.18800000000000000          1.5545016154646873E-002
  0.18910000000000005          1.5498948283493519E-002
  0.19020000000000004          1.5303910709917545E-002
  0.19130000000000003          1.4989102259278297E-002
  0.19240000000000002          1.4804053120315075E-002
  0.19350000000000001          1.4952408149838448E-002
  0.19460000000000005          1.5374795533716679E-002
  0.19570000000000004          1.5806918963789940E-002
  0.19680000000000003          1.6049554571509361E-002
  0.19790000000000002          1.6167616471648216E-002
  0.19900000000000001          1.6411602497100830E-002
  0.20010000000000000          1.6946237534284592E-002
  0.20120000000000005          1.7670292407274246E-002
  0.20230000000000004          1.8312565982341766E-002
  0.20340000000000003          1.8699768930673599E-002
  0.20450000000000002          1.8914738669991493E-002
  0.20560000000000000          1.9182134419679642E-002
  0.20670000000000005          1.9606571644544601E-002
  0.20780000000000004          2.0041087642312050E-002
  0.20890000000000003          2.0223744213581085E-002
