 -0.12000000000000000          0.0000000000000000
 -0.11889999999999999          0.0000000000000000
 -0.11780000000000000          0.0000000000000000
 -0.11670000000000000          0.0000000000000000
 -0.11559999999999999          0.0000000000000000
 -0.11449999999999999          0.0000000000000000
 -0.11340000000000000          0.0000000000000000
 -0.11230000000000000          0.0000000000000000
 -0.11119999999999999          0.0000000000000000
 -0.11009999999999999         -3.3438144302421483E-035
 -0.10900000000000000         -1.0791342028737994E-022
 -0.10790000000000000         -3.0399392382204753E-022
 -0.10679999999999999          3.4549714560246725E-021
 -0.10569999999999999          2.0636766878246143E-020
 -0.10460000000000000          6.7972411691179462E-021
 -0.10349999999999999         -2.7713463747242035E-019
 -0.10239999999999999         -9.5466051868021452E-019
 -0.10130000000000000         -1.6724604538829780E-019
 -0.10020000000000000          7.4257533873005637E-018
  -9.9099999999999994E-002     2.1107238828036401E-017
  -9.7999999999999990E-002     5.6975538847954457E-018
  -9.6899999999999986E-002    -1.1174408041267951E-016
  -9.5799999999999996E-002    -3.0139335440447588E-016
  -9.4699999999999993E-002    -1.3950468528621071E-016
  -9.3599999999999989E-002     1.1206803875127597E-015
  -9.2499999999999999E-002     3.1684277478825192E-015
  -9.1399999999999995E-002     2.2826773481247060E-015
  -9.0299999999999991E-002    -7.8173661730649859E-015
  -8.9200000000000002E-002    -2.5718092071110137E-014
  -8.8099999999999984E-002    -2.6107551043985746E-014
  -8.6999999999999994E-002     3.5716506249964786E-014
  -8.5899999999999990E-002     1.6286103054257063E-013
  -8.4799999999999986E-002     2.1904230003153049E-013
  -8.3699999999999997E-002    -6.5246338063357423E-014
  -8.2599999999999993E-002    -7.9547230347883081E-013
  -8.1499999999999989E-002    -1.3955880721890147E-012
  -8.0399999999999999E-002    -4.9971875595802948E-013
  -7.9299999999999995E-002     2.8593917598267976E-012
  -7.8199999999999992E-002     6.8719548280956697E-012
  -7.7100000000000002E-002     5.7802261241276747E-012
  -7.5999999999999984E-002    -6.3153037487008689E-012
  -7.4899999999999994E-002    -2.6064445740599878E-011
  -7.3799999999999991E-002    -3.3617039707491571E-011
  -7.2699999999999987E-002    -1.6599555931106229E-012
  -7.1599999999999997E-002     7.3112113585512318E-011
  -7.0499999999999993E-002     1.3666601184067698E-010
  -6.9399999999999989E-002     8.8841593803808465E-011
  -6.8300000000000000E-002    -1.2870100818408692E-010
  -6.7199999999999996E-002    -4.1039388554148898E-010
  -6.6099999999999992E-002    -4.6232495609632881E-010
  -6.5000000000000002E-002    -6.7343022425090709E-013
  -6.3899999999999985E-002     8.8234924922044206E-010
  -6.2799999999999995E-002     1.5058607694127143E-009
  -6.1699999999999991E-002     9.3469088024957445E-010
  -6.0599999999999994E-002    -1.1148757472768721E-009
  -5.9499999999999990E-002    -3.4583842456467092E-009
  -5.8399999999999994E-002    -3.7521550311218765E-009
  -5.7299999999999990E-002    -3.4517999569713274E-010
  -5.6199999999999986E-002     5.4521285264284497E-009
  -5.5099999999999996E-002     9.0200380498106489E-009
  -5.3999999999999992E-002     5.5541504728737058E-009
  -5.2899999999999989E-002    -4.8664725582630054E-009
  -5.1799999999999985E-002    -1.4895673139391067E-008
  -5.0699999999999995E-002    -1.4326028363595928E-008
  -4.9599999999999991E-002     1.8337566187872429E-010
  -4.8499999999999988E-002     1.8395445167128481E-008
  -4.7399999999999998E-002     2.1960946838813958E-008
  -4.6299999999999994E-002     1.8109427291061618E-009
  -4.5199999999999990E-002    -2.6801782126992467E-008
  -4.4099999999999986E-002    -3.0529900385539239E-008
  -4.2999999999999997E-002     1.0727924326662475E-008
  -4.1899999999999993E-002     7.1007924873350683E-008
  -4.0799999999999989E-002     8.2052636685133098E-008
  -3.9699999999999985E-002    -1.0218718315982292E-008
  -3.8599999999999995E-002    -1.7227759485649215E-007
  -3.7499999999999992E-002    -2.6652932660905971E-007
  -3.6399999999999988E-002    -1.4104055878756770E-007
  -3.5299999999999984E-002     2.1601223920699691E-007
  -3.4199999999999994E-002     5.8778340417117927E-007
  -3.3099999999999991E-002     6.2866877215121436E-007
  -3.1999999999999987E-002     1.3684170596653865E-007
  -3.0899999999999997E-002    -6.9561349391736324E-007
  -2.9799999999999993E-002    -1.3034107269049292E-006
  -2.8699999999999989E-002    -1.1160992698931918E-006
  -2.7599999999999986E-002    -4.5630550005055902E-008
  -2.6499999999999996E-002     1.3148084008208078E-006
  -2.5399999999999992E-002     2.0325467176007259E-006
  -2.4299999999999988E-002     1.5330763289965695E-006
  -2.3199999999999985E-002     1.0031924091424113E-007
  -2.2099999999999995E-002    -1.3009430404054880E-006
  -2.0999999999999991E-002    -1.8132722061637374E-006
  -1.9899999999999987E-002    -1.4228405689209918E-006
  -1.8799999999999983E-002    -9.1537918933680090E-007
  -1.7699999999999994E-002    -9.7375209406874431E-007
  -1.6599999999999990E-002    -1.2184548268120019E-006
  -1.5499999999999986E-002    -2.6346194204003772E-007
  -1.4399999999999996E-002     2.9114614790163203E-006
  -1.3299999999999992E-002     7.2826314863048747E-006
  -1.2199999999999989E-002     9.4922052085158886E-006
  -1.1099999999999985E-002     5.8443761190562055E-006
  -9.9999999999999950E-003    -4.4184607759245278E-006
  -8.8999999999999913E-003    -1.7075211871997762E-005
  -7.7999999999999875E-003    -2.4279042918350635E-005
  -6.6999999999999837E-003    -1.9156961570841256E-005
  -5.5999999999999939E-003    -8.7660583858224971E-007
  -4.4999999999999901E-003     2.3424050596078740E-005
  -3.3999999999999864E-003     4.1599239921197681E-005
  -2.2999999999999826E-003     4.2829677113330404E-005
  -1.1999999999999927E-003     2.3547891032646023E-005
  -9.9999999999988987E-005    -1.0422426385052458E-005
   1.0000000000000148E-003    -4.6308319724634298E-005
   2.1000000000000185E-003    -6.9561363488903033E-005
   3.2000000000000084E-003    -6.9081026595083948E-005
   4.3000000000000121E-003    -4.0861970774125055E-005
   5.4000000000000159E-003     1.0143877261734246E-005
   6.5000000000000058E-003     6.9861511292409982E-005
   7.6000000000000234E-003     1.1728817480616696E-004
   8.7000000000000133E-003     1.3006557128391864E-004
   9.8000000000000032E-003     9.3141767138138652E-005
   1.0900000000000021E-002     7.7194590630661776E-006
   1.2000000000000011E-002    -1.0411317634863505E-004
   1.3100000000000001E-002    -2.0296221191530028E-004
   1.4200000000000018E-002    -2.4451146600767531E-004
   1.5300000000000008E-002    -1.9711651839314081E-004
   1.6400000000000026E-002    -5.8060701121549174E-005
   1.7500000000000016E-002     1.3854716962671674E-004
   1.8600000000000005E-002     3.2716477289797372E-004
   1.9700000000000023E-002     4.3025464401580019E-004
   2.0800000000000013E-002     3.8709060754624658E-004
   2.1900000000000003E-002     1.8213634029958461E-004
   2.3000000000000020E-002    -1.3906329695604900E-004
   2.4100000000000010E-002    -4.7572315088476139E-004
   2.5200000000000000E-002    -7.0081325247884675E-004
   2.6300000000000018E-002    -7.0512515958396900E-004
   2.7400000000000008E-002    -4.4179748510937656E-004
   2.8500000000000025E-002     4.4261578295905895E-005
   2.9600000000000015E-002     6.1396462842828461E-004
   3.0700000000000005E-002     1.0648341849446756E-003
   3.1800000000000023E-002     1.1937464587390475E-003
   3.2900000000000013E-002     8.7919388897711882E-004
   3.4000000000000002E-002     1.5558305312868940E-004
   3.5100000000000020E-002    -7.5921916868550686E-004
   3.6200000000000010E-002    -1.5159297036008131E-003
   3.7300000000000028E-002    -1.7664713086560724E-003
   3.8400000000000017E-002    -1.3298543635755081E-003
   3.9500000000000007E-002    -3.0807763687318122E-004
   4.0600000000000025E-002     9.2327425954885211E-004
   4.1700000000000015E-002     1.8654270097615228E-003
   4.2800000000000005E-002     2.1215814631433128E-003
   4.3900000000000022E-002     1.5792222693561833E-003
   4.5000000000000012E-002     4.5061571290695609E-004
   4.6100000000000002E-002    -8.4473215974896292E-004
   4.7200000000000020E-002    -1.8777775112542318E-003
   4.8300000000000010E-002    -2.3684503976257468E-003
   4.9400000000000027E-002    -2.2255317308008970E-003
   5.0500000000000017E-002    -1.4802840305490985E-003
   5.1600000000000007E-002    -2.0296763977941114E-004
   5.2700000000000025E-002     1.5042250743139260E-003
   5.3800000000000014E-002     3.4168565180156441E-003
   5.4900000000000004E-002     5.0779073499146715E-003
   5.6000000000000022E-002     5.7954890653493770E-003
   5.7100000000000012E-002     4.8343273811043410E-003
   5.8200000000000002E-002     1.7652042442931298E-003
   5.9300000000000019E-002    -3.1949644908313584E-003
   6.0400000000000009E-002    -9.0737482532866707E-003
   6.1500000000000027E-002    -1.4408780261875245E-002
   6.2600000000000017E-002    -1.7842795699836017E-002
   6.3700000000000007E-002    -1.8794555217028896E-002
   6.4800000000000024E-002    -1.7852827906609820E-002
   6.5900000000000014E-002    -1.6636665910483739E-002
   6.7000000000000004E-002    -1.7133645713330949E-002
   6.8100000000000022E-002    -2.0829202607276245E-002
   6.9200000000000012E-002    -2.8088450431826693E-002
   7.0300000000000029E-002    -3.8138054311279340E-002
   7.1400000000000019E-002    -4.9659159034495345E-002
   7.2500000000000009E-002    -6.1656147241598028E-002
   7.3600000000000027E-002    -7.4109800159937664E-002
   7.4700000000000016E-002    -8.8077373802669404E-002
   7.5800000000000006E-002   -0.10524862259627280
   7.6900000000000024E-002   -0.12728458642960680
   7.8000000000000014E-002   -0.15536302328111087
   7.9100000000000004E-002   -0.19016408920289765
   8.0200000000000021E-002   -0.23222896456720524
   8.1300000000000011E-002   -0.28240504860880533
   8.2400000000000029E-002   -0.34206059575083958
   8.3500000000000019E-002   -0.41296735405925655
   8.4600000000000009E-002   -0.49696406722073244
   8.5700000000000026E-002   -0.59567803144460274
   8.6800000000000016E-002   -0.71050369739538799
   8.7900000000000006E-002   -0.84295541048057432
   8.9000000000000024E-002   -0.99517220258721628
   9.0100000000000013E-002    -1.1702975034714789
   9.1200000000000003E-002    -1.3724801540375982
   9.2300000000000021E-002    -1.6064491271974091
   9.3400000000000011E-002    -1.8768706321717987
   9.4500000000000028E-002    -2.1878759860994390
   9.5600000000000018E-002    -2.5430746078493485
   9.6700000000000008E-002    -2.9458246231081739
   9.7800000000000026E-002    -3.3998479843142690
   9.8900000000000016E-002    -3.9092652797702474
  0.10000000000000001         -4.4785251617435655
  0.10110000000000002         -5.1119909286503606
  0.10220000000000001         -5.8134279251103846
  0.10330000000000003         -6.5861406326299852
  0.10440000000000002         -7.4334487915045733
  0.10550000000000001         -8.3588933944709645
  0.10660000000000003         -9.3659687042244730
  0.10770000000000002         -10.457245826722129
  0.10880000000000001         -11.632838249207587
  0.10990000000000003         -12.890072822571959
  0.11100000000000002         -14.223524093629209
  0.11210000000000001         -15.625747680665468
  0.11320000000000002         -17.088016510011304
  0.11430000000000001         -18.601366043092494
  0.11540000000000003         -20.155597686769394
  0.11650000000000002         -21.738056182863289
  0.11760000000000001         -23.332901000978666
  0.11870000000000003         -24.917575836183889
  0.11980000000000002         -26.466089248659618
  0.12090000000000001         -27.947866439821862
  0.12200000000000003         -29.330682754519255
  0.12310000000000001         -30.580192565920736
  0.12420000000000003         -31.662630081179628
  0.12530000000000002         -32.540603637698268
  0.12640000000000001         -33.175544738772544
  0.12750000000000003         -33.523811340335079
  0.12860000000000002         -33.539157867434696
  0.12970000000000001         -33.171779632571386
  0.13080000000000003         -32.376773834231479
  0.13190000000000002         -31.112062454226486
  0.13300000000000001         -29.339132308962657
  0.13410000000000000         -27.021783828737846
  0.13520000000000004         -24.125314712526652
  0.13630000000000003         -20.619485855104465
  0.13740000000000002         -16.479753494264255
  0.13850000000000001         -11.692443847657380
  0.13960000000000000         -6.2553176879889252
  0.14070000000000005        -0.17595437169084874
  0.14180000000000004          6.5228371620183259
  0.14290000000000003          13.813320159913269
  0.14400000000000002          21.657709121705970
  0.14510000000000001          30.013500213625669
  0.14620000000000000          38.810512542728027
  0.14730000000000004          47.962615966801124
  0.14840000000000003          57.374271392827367
  0.14950000000000002          66.937545776373156
  0.15060000000000001          76.531082153327162
  0.15170000000000000          86.029396057136623
  0.15280000000000005          95.299575805672632
  0.15390000000000004          104.19641113282188
  0.15500000000000003          112.57496643067421
  0.15610000000000002          120.28717803956165
  0.15720000000000001          127.19272613526542
  0.15830000000000000          133.13885498048080
  0.15940000000000004          137.97488403321566
  0.16050000000000003          141.55764770509100
  0.16160000000000002          143.76733398438807
  0.16270000000000001          144.51283264161475
  0.16380000000000000          143.72222900391938
  0.16490000000000005          141.33348083497387
  0.16600000000000004          137.28945922852822
  0.16710000000000003          131.55311584473864
  0.16820000000000002          124.12791442872236
  0.16930000000000001          115.05682373047937
  0.17040000000000000          104.41467285157218
  0.17150000000000004          92.289970397957802
  0.17260000000000003          78.785408020026892
  0.17370000000000002          64.031524658209165
  0.17480000000000001          48.187797546391323
  0.17590000000000000          31.443292617800939
  0.17700000000000005          14.006323814393593
  0.17810000000000004         -3.9075713157655101
  0.17920000000000003         -22.073066711427568
  0.18030000000000002         -40.257980346683134
  0.18140000000000001         -58.216014862065634
  0.18250000000000000         -75.705978393561381
  0.18360000000000004         -92.492996215828555
  0.18470000000000003         -108.36371612549797
  0.18580000000000002         -123.10582733155402
  0.18690000000000001         -136.52497863770762
  0.18800000000000000         -148.44309997559935
  0.18910000000000005         -158.70323181153782
  0.19020000000000004         -167.17878723146049
  0.19130000000000003         -173.78112792970330
  0.19240000000000002         -178.45780944825842
  0.19350000000000001         -181.17150878907901
  0.19460000000000005         -181.91271972657910
  0.19570000000000004         -180.69641113282901
  0.19680000000000003         -177.57203674318032
  0.19790000000000002         -172.64347839357052
  0.19900000000000001         -166.02688598634336
  0.20010000000000000         -157.85334777833481
  0.20120000000000005         -148.26448059083395
  0.20230000000000004         -137.41192626954393
  0.20340000000000003         -125.47872161866393
  0.20450000000000002         -112.66604614258856
  0.20560000000000000         -99.192375183114663
  0.20670000000000005         -85.264785766609492
  0.20780000000000004         -71.071586608893355
  0.20890000000000003         -56.797237396245563
