 -0.12000000000000000          0.0000000000000000
 -0.11889999999999999          0.0000000000000000
 -0.11780000000000000          0.0000000000000000
 -0.11670000000000000         -2.0869456420768984E-006
 -0.11559999999999999         -7.0124092417245265E-006
 -0.11449999999999999         -6.5525664467713796E-006
 -0.11340000000000000          1.2906176380056422E-005
 -0.11230000000000000          4.8707581299822778E-005
 -0.11119999999999999          6.4864172600209713E-005
 -0.11009999999999999          1.2473350579966791E-005
 -0.10900000000000000         -1.1524405272211879E-004
 -0.10790000000000000         -2.4465267779305577E-004
 -0.10679999999999999         -2.5112691218964756E-004
 -0.10569999999999999         -4.7337362047983333E-005
 -0.10460000000000000          3.3433359931223094E-004
 -0.10349999999999999          7.2133541107177734E-004
 -0.10239999999999999          8.4847066318616271E-004
 -0.10130000000000000          4.6146201202645898E-004
 -0.10020000000000000         -5.1526009337976575E-004
  -9.9099999999999994E-002    -1.7729261890053749E-003
  -9.7999999999999990E-002    -2.5389711372554302E-003
  -9.6899999999999986E-002    -1.8793817143887281E-003
  -9.5799999999999996E-002     5.6372774997726083E-004
  -9.4699999999999993E-002     3.8440949283540249E-003
  -9.3599999999999989E-002     5.7867281138896942E-003
  -9.2499999999999999E-002     4.2948881164193153E-003
  -9.1399999999999995E-002    -7.6608243398368359E-004
  -9.0299999999999991E-002    -6.6902730613946915E-003
  -8.9200000000000002E-002    -9.3009173870086670E-003
  -8.8099999999999984E-002    -6.0497634112834930E-003
  -8.6999999999999994E-002     1.5129653038457036E-003
  -8.5899999999999990E-002     8.3033945411443710E-003
  -8.4799999999999986E-002     9.4165932387113571E-003
  -8.3699999999999997E-002     4.1889897547662258E-003
  -8.2599999999999993E-002    -2.9764897190034389E-003
  -8.1499999999999989E-002    -6.1214645393192768E-003
  -8.0399999999999999E-002    -2.8159858193248510E-003
  -7.9299999999999995E-002     3.6357981152832508E-003
  -7.8199999999999992E-002     6.9708302617073059E-003
  -7.7100000000000002E-002     3.3382070250809193E-003
  -7.5999999999999984E-002    -5.5748322047293186E-003
  -7.4899999999999994E-002    -1.4446504414081573E-002
  -7.3799999999999991E-002    -1.9290750846266747E-002
  -7.2699999999999987E-002    -2.0676050335168839E-002
  -7.1599999999999997E-002    -2.2273292765021324E-002
  -7.0499999999999993E-002    -2.6600375771522522E-002
  -6.9399999999999989E-002    -3.2625183463096619E-002
  -6.8300000000000000E-002    -3.7754885852336884E-002
  -6.7199999999999996E-002    -4.1852470487356186E-002
  -6.6099999999999992E-002    -4.8520117998123169E-002
  -6.5000000000000002E-002    -6.1762448400259018E-002
  -6.3899999999999985E-002    -8.1425204873085022E-002
  -6.2799999999999995E-002   -0.10274571925401688
  -6.1699999999999991E-002   -0.12135529518127441
  -6.0599999999999994E-002   -0.13901375234127045
  -5.9499999999999990E-002   -0.16378745436668396
  -5.8399999999999994E-002   -0.20362381637096405
  -5.7299999999999990E-002   -0.25936159491539001
  -5.6199999999999986E-002   -0.32458019256591797
  -5.5099999999999996E-002   -0.39311632513999939
  -5.3999999999999992E-002   -0.46696111559867859
  -5.2899999999999989E-002   -0.55611997842788696
  -5.1799999999999985E-002   -0.66992884874343872
  -5.0699999999999995E-002   -0.80864828824996948
  -4.9599999999999991E-002   -0.96473896503448486
  -4.8499999999999988E-002    -1.1337472200393677
  -4.7399999999999998E-002    -1.3241225481033325
  -4.6299999999999994E-002    -1.5550335645675659
  -4.5199999999999990E-002    -1.8426516056060791
  -4.4099999999999986E-002    -2.1877100467681885
  -4.2999999999999997E-002    -2.5772686004638672
  -4.1899999999999993E-002    -3.0004777908325195
  -4.0799999999999989E-002    -3.4636263847351074
  -3.9699999999999985E-002    -3.9896998405456543
  -3.8599999999999995E-002    -4.6022095680236816
  -3.7499999999999992E-002    -5.3086400032043457
  -3.6399999999999988E-002    -6.1001558303833008
  -3.5299999999999984E-002    -6.9676971435546875
  -3.4199999999999994E-002    -7.9187121391296387
  -3.3099999999999991E-002    -8.9769058227539062
  -3.1999999999999987E-002    -10.164586067199707
  -3.0899999999999997E-002    -11.484746932983398
  -2.9799999999999993E-002    -12.921362876892090
  -2.8699999999999989E-002    -14.457375526428223
  -2.7599999999999986E-002    -16.092683792114258
  -2.6499999999999996E-002    -17.844846725463867
  -2.5399999999999992E-002    -19.730466842651367
  -2.4299999999999988E-002    -21.747819900512695
  -2.3199999999999985E-002    -23.875396728515625
  -2.2099999999999995E-002    -26.088722229003906
  -2.0999999999999991E-002    -28.375833511352539
  -1.9899999999999987E-002    -30.732736587524414
  -1.8799999999999983E-002    -33.147670745849609
  -1.7699999999999994E-002    -35.588645935058594
  -1.6599999999999990E-002    -38.007270812988281
  -1.5499999999999986E-002    -40.357490539550781
  -1.4399999999999996E-002    -42.609283447265625
  -1.3299999999999992E-002    -44.739166259765625
  -1.2199999999999989E-002    -46.711578369140625
  -1.1099999999999985E-002    -48.466777801513672
  -9.9999999999999950E-003    -49.932895660400391
  -8.8999999999999913E-003    -51.046276092529297
  -7.7999999999999875E-003    -51.757297515869141
  -6.6999999999999837E-003    -52.017238616943359
  -5.5999999999999939E-003    -51.758541107177734
  -4.4999999999999901E-003    -50.892673492431641
  -3.3999999999999864E-003    -49.336498260498047
  -2.2999999999999826E-003    -47.041919708251953
  -1.1999999999999927E-003    -43.992141723632812
  -9.9999999999988987E-005    -40.172142028808594
   1.0000000000000148E-003    -35.534187316894531
   2.1000000000000185E-003    -30.004026412963867
   3.2000000000000084E-003    -23.516471862792969
   4.3000000000000121E-003    -16.058130264282227
   5.4000000000000159E-003    -7.6675839424133301
   6.5000000000000058E-003     1.5967701673507690
   7.6000000000000234E-003     11.693657875061035
   8.7000000000000133E-003     22.605745315551758
   9.8000000000000032E-003     34.307758331298828
   1.0900000000000021E-002     46.719551086425781
   1.2000000000000011E-002     59.708316802978516
   1.3100000000000001E-002     73.104377746582031
   1.4200000000000018E-002     86.769973754882812
   1.5300000000000008E-002     100.58662414550781
   1.6400000000000026E-002     114.43879699707031
   1.7500000000000016E-002     128.15476989746094
   1.8600000000000005E-002     141.51301574707031
   1.9700000000000023E-002     154.28675842285156
   2.0800000000000013E-002     166.26985168457031
   2.1900000000000003E-002     177.29351806640625
   2.3000000000000020E-002     187.18916320800781
   2.4100000000000010E-002     195.76019287109375
   2.5200000000000000E-002     202.79875183105469
   2.6300000000000018E-002     208.11630249023438
   2.7400000000000008E-002     211.58322143554688
   2.8500000000000025E-002     213.10104370117188
   2.9600000000000015E-002     212.58280944824219
   3.0700000000000005E-002     209.92817687988281
   3.1800000000000023E-002     205.06367492675781
   3.2900000000000013E-002     197.96809387207031
   3.4000000000000002E-002     188.68904113769531
   3.5100000000000020E-002     177.30711364746094
   3.6200000000000010E-002     163.89396667480469
   3.7300000000000028E-002     148.52798461914062
   3.8400000000000017E-002     131.30824279785156
   3.9500000000000007E-002     112.40514373779297
   4.0600000000000025E-002     92.070983886718750
   4.1700000000000015E-002     70.592224121093750
   4.2800000000000005E-002     48.228378295898438
   4.3900000000000022E-002     25.193952560424805
   4.5000000000000012E-002     1.6977775096893311
   4.6100000000000002E-002    -22.002248764038086
   4.7200000000000020E-002    -45.583995819091797
   4.8300000000000010E-002    -68.702331542968750
   4.9400000000000027E-002    -91.065704345703125
   5.0500000000000017E-002    -112.45853424072266
   5.1600000000000007E-002    -132.70884704589844
   5.2700000000000025E-002    -151.62973022460938
   5.3800000000000014E-002    -168.98136901855469
   5.4900000000000004E-002    -184.50694274902344
   5.6000000000000022E-002    -198.02474975585938
   5.7100000000000012E-002    -209.45976257324219
   5.8200000000000002E-002    -218.79611206054688
   5.9300000000000019E-002    -226.02308654785156
   6.0400000000000009E-002    -231.10728454589844
   6.1500000000000027E-002    -234.01792907714844
   6.2600000000000017E-002    -234.78018188476562
   6.3700000000000007E-002    -233.47119140625000
   6.4800000000000024E-002    -230.21691894531250
   6.5900000000000014E-002    -225.16372680664062
   6.7000000000000004E-002    -218.43878173828125
   6.8100000000000022E-002    -210.16642761230469
   6.9200000000000012E-002    -200.48391723632812
   7.0300000000000029E-002    -189.57475280761719
   7.1400000000000019E-002    -177.64093017578125
   7.2500000000000009E-002    -164.88409423828125
   7.3600000000000027E-002    -151.46229553222656
   7.4700000000000016E-002    -137.54418945312500
   7.5800000000000006E-002    -123.30659484863281
   7.6900000000000024E-002    -108.94354248046875
   7.8000000000000014E-002    -94.606002807617188
   7.9100000000000004E-002    -80.404548645019531
   8.0200000000000021E-002    -66.433380126953125
   8.1300000000000011E-002    -52.787666320800781
   8.2400000000000029E-002    -39.588024139404297
   8.3500000000000019E-002    -26.966218948364258
   8.4600000000000009E-002    -15.001834869384766
   8.5700000000000026E-002    -3.7160291671752930
   8.6800000000000016E-002     6.9003248214721680
   8.7900000000000006E-002     16.834545135498047
   8.9000000000000024E-002     26.025003433227539
   9.0100000000000013E-002     34.401062011718750
   9.1200000000000003E-002     41.929534912109375
   9.2300000000000021E-002     48.653148651123047
   9.3400000000000011E-002     54.654155731201172
   9.4500000000000028E-002     60.001235961914062
   9.5600000000000018E-002     64.695045471191406
   9.6700000000000008E-002     68.696586608886719
   9.7800000000000026E-002     71.982032775878906
   9.8900000000000016E-002     74.588432312011719
  0.10000000000000001          76.602981567382812
  0.10110000000000002          78.107162475585938
  0.10220000000000001          79.131011962890625
  0.10330000000000003          79.652877807617188
  0.10440000000000002          79.652549743652344
  0.10550000000000001          79.157829284667969
  0.10660000000000003          78.245147705078125
  0.10770000000000002          76.998565673828125
  0.10880000000000001          75.464965820312500
  0.10990000000000003          73.644645690917969
  0.11100000000000002          71.526893615722656
  0.11210000000000001          69.125488281250000
  0.11320000000000002          66.487281799316406
  0.11430000000000001          63.667678833007812
  0.11540000000000003          60.701416015625000
  0.11650000000000002          57.600200653076172
  0.11760000000000001          54.372482299804688
  0.11870000000000003          51.045646667480469
  0.11980000000000002          47.662696838378906
  0.12090000000000001          44.264141082763672
  0.12200000000000003          40.867370605468750
  0.12310000000000001          37.481208801269531
  0.12420000000000003          34.125740051269531
  0.12530000000000002          30.838171005249023
  0.12640000000000001          27.660654067993164
  0.12750000000000003          24.607698440551758
  0.12860000000000002          21.661891937255859
  0.12970000000000001          18.792562484741211
  0.13080000000000003          16.004899978637695
  0.13190000000000002          13.348481178283691
  0.13300000000000001          10.884876251220703
  0.13410000000000000          8.6413650512695312
  0.13520000000000004          6.5878696441650391
  0.13630000000000003          4.6702547073364258
  0.13740000000000002          2.8639032840728760
  0.13850000000000001          1.1960775852203369
  0.13960000000000000        -0.27477774024009705
  0.14070000000000005         -1.5186109542846680
  0.14180000000000004         -2.5694699287414551
  0.14290000000000003         -3.5054440498352051
  0.14400000000000002         -4.3822588920593262
  0.14510000000000001         -5.1877069473266602
  0.14620000000000000         -5.8603587150573730
  0.14730000000000004         -6.3499622344970703
  0.14840000000000003         -6.6684694290161133
  0.14950000000000002         -6.8860917091369629
  0.15060000000000001         -7.0696063041687012
  0.15170000000000000         -7.2324433326721191
  0.15280000000000005         -7.3331398963928223
  0.15390000000000004         -7.3284955024719238
  0.15500000000000003         -7.2222509384155273
  0.15610000000000002         -7.0686955451965332
  0.15720000000000001         -6.9258918762207031
  0.15830000000000000         -6.8073215484619141
  0.15940000000000004         -6.6776657104492188
  0.16050000000000003         -6.4972066879272461
  0.16160000000000002         -6.2637472152709961
  0.16270000000000001         -6.0115437507629395
  0.16380000000000000         -5.7756528854370117
  0.16490000000000005         -5.5567288398742676
  0.16600000000000004         -5.3286676406860352
  0.16710000000000003         -5.0735530853271484
  0.16820000000000002         -4.8103199005126953
  0.16930000000000001         -4.5763883590698242
  0.17040000000000000         -4.3873014450073242
  0.17150000000000004         -4.2157363891601562
  0.17260000000000003         -4.0182847976684570
  0.17370000000000002         -3.7857198715209961
  0.17480000000000001         -3.5591902732849121
  0.17590000000000000         -3.3913273811340332
  0.17700000000000005         -3.2887384891510010
  0.17810000000000004         -3.1966764926910400
  0.17920000000000003         -3.0511746406555176
  0.18030000000000002         -2.8458237648010254
  0.18140000000000001         -2.6479840278625488
  0.18250000000000000         -2.5389275550842285
  0.18360000000000004         -2.5345830917358398
  0.18470000000000003         -2.5658819675445557
  0.18580000000000002         -2.5440590381622314
  0.18690000000000001         -2.4494783878326416
  0.18800000000000000         -2.3562552928924561
  0.18910000000000005         -2.3619339466094971
  0.19020000000000004         -2.4915516376495361
  0.19130000000000003         -2.6719958782196045
  0.19240000000000002         -2.8024487495422363
  0.19350000000000001         -2.8552737236022949
  0.19460000000000005         -2.9055347442626953
  0.19570000000000004         -3.0594310760498047
  0.19680000000000003         -3.3520958423614502
  0.19790000000000002         -3.7181541919708252
  0.19900000000000001         -4.0617237091064453
  0.20010000000000000         -4.3548884391784668
  0.20120000000000005         -4.6648159027099609
  0.20230000000000004         -5.0828642845153809
  0.20340000000000003         -5.6313972473144531
  0.20450000000000002         -6.2446475028991699
  0.20560000000000000         -6.8405637741088867
  0.20670000000000005         -7.4079637527465820
  0.20780000000000004         -8.0160818099975586
  0.20890000000000003         -8.7381839752197266
