 -0.12000000000000000          0.0000000000000000
 -0.11889999999999999          0.0000000000000000
 -0.11780000000000000          0.0000000000000000
 -0.11670000000000000          0.0000000000000000
 -0.11559999999999999          0.0000000000000000
 -0.11449999999999999          0.0000000000000000
 -0.11340000000000000          0.0000000000000000
 -0.11230000000000000          0.0000000000000000
 -0.11119999999999999          0.0000000000000000
 -0.11009999999999999          0.0000000000000000
 -0.10900000000000000          0.0000000000000000
 -0.10790000000000000          0.0000000000000000
 -0.10679999999999999          0.0000000000000000
 -0.10569999999999999          0.0000000000000000
 -0.10460000000000000          0.0000000000000000
 -0.10349999999999999          0.0000000000000000
 -0.10239999999999999          1.2111251127383671E-031
 -0.10130000000000000          7.8718427411854696E-031
 -0.10020000000000000         -5.1182111131978039E-030
  -9.9099999999999994E-002    -8.4221060912799653E-029
  -9.7999999999999990E-002    -4.3200674212471055E-028
  -9.6899999999999986E-002    -7.6873464841267353E-028
  -9.5799999999999996E-002     2.9711379029960219E-027
  -9.4699999999999993E-002     2.3561364716446790E-026
  -9.3599999999999989E-002     6.5887394600264899E-026
  -9.2499999999999999E-002     2.9170027085612189E-026
  -9.1399999999999995E-002    -4.6510272617221960E-025
  -9.0299999999999991E-002    -1.8797922310540271E-024
  -8.9200000000000002E-002    -3.0511743530146495E-024
  -8.8099999999999984E-002     2.4533710230879618E-024
  -8.6999999999999994E-002     2.6510689928241647E-023
  -8.5899999999999990E-002     6.7233882889066791E-023
  -8.4799999999999986E-002     5.7543471353121190E-023
  -8.3699999999999997E-002    -1.7482475372953703E-022
  -8.2599999999999993E-002    -7.7293843573583503E-022
  -8.1499999999999989E-002    -1.3420996350995246E-021
  -8.0399999999999999E-002    -2.6773330753671034E-022
  -7.9299999999999995E-002     4.8914331937235948E-021
  -7.8199999999999992E-002     1.3850686992802958E-020
  -7.7100000000000002E-002     1.6751935749627473E-020
  -7.5999999999999984E-002    -8.9523439329077049E-021
  -7.4899999999999994E-002    -8.2008217505110094E-020
  -7.3799999999999991E-002    -1.6992172910202454E-019
  -7.2699999999999987E-002    -1.3682390634830509E-019
  -7.1599999999999997E-002     2.2257083158813856E-019
  -7.0499999999999993E-002     9.5094017047833803E-019
  -6.9399999999999989E-002     1.5302758614169757E-018
  -6.8300000000000000E-002     7.0166763852425804E-019
  -6.7199999999999996E-002    -2.8019816807947753E-018
  -6.6099999999999992E-002    -8.2389695367537592E-018
  -6.5000000000000002E-002    -1.0638912488526324E-017
  -6.3899999999999985E-002    -1.4799803850416077E-018
  -6.2799999999999995E-002     2.4334399615501444E-017
  -6.1699999999999991E-002     5.6123410468334877E-017
  -6.0599999999999994E-002     5.9607958429551259E-017
  -5.9499999999999990E-002    -9.4855274111487217E-018
  -5.8399999999999994E-002    -1.6073880865737821E-016
  -5.7299999999999990E-002    -3.1262503775498530E-016
  -5.6199999999999986E-002    -2.8179523546663571E-016
  -5.5099999999999996E-002     1.1590486506828546E-016
  -5.3999999999999992E-002     8.4996082251560323E-016
  -5.2899999999999989E-002     1.4749827285254072E-015
  -5.1799999999999985E-002     1.1891877770120571E-015
  -5.0699999999999995E-002    -6.5786783200107602E-016
  -4.9599999999999991E-002    -3.7282574454706920E-015
  -4.8499999999999988E-002    -6.1044017029535016E-015
  -4.7399999999999998E-002    -4.7622559751724341E-015
  -4.6299999999999994E-002     2.4511776123241477E-015
  -4.5199999999999990E-002     1.3995317864410727E-014
  -4.4099999999999986E-002     2.2934289490845854E-014
  -4.2999999999999997E-002     1.8799404985199789E-014
  -4.1899999999999993E-002    -5.8696185695347129E-015
  -4.0799999999999989E-002    -4.6424530750687962E-014
  -3.9699999999999985E-002    -8.0358279980295017E-014
  -3.8599999999999995E-002    -7.2495571286530780E-014
  -3.7499999999999992E-002     4.6312708002090291E-015
  -3.6399999999999988E-002     1.4058490428649900E-013
  -3.5299999999999984E-002     2.6535558147501581E-013
  -3.4199999999999994E-002     2.6246962502723958E-013
  -3.3099999999999991E-002     3.4039729991967513E-014
  -3.1999999999999987E-002    -3.9816227029830509E-013
  -3.0899999999999997E-002    -8.1845982899050873E-013
  -2.9799999999999993E-002    -8.5953531618609968E-013
  -2.8699999999999989E-002    -2.1334748746305865E-013
  -2.7599999999999986E-002     1.0556098096331512E-012
  -2.6499999999999996E-002     2.3070935353114441E-012
  -2.5399999999999992E-002     2.4939722596123426E-012
  -2.4299999999999988E-002     7.9891865692460762E-013
  -2.3199999999999985E-002    -2.5336369287309868E-012
  -2.2099999999999995E-002    -5.7877873500811194E-012
  -2.0999999999999991E-002    -6.3826192595040077E-012
  -1.9899999999999987E-002    -2.5084309629441748E-012
  -1.8799999999999983E-002     5.0836865099490591E-012
  -1.7699999999999994E-002     1.2543569481715533E-011
  -1.6599999999999990E-002     1.4562670513917908E-011
  -1.5499999999999986E-002     7.6671993406995931E-012
  -1.4399999999999996E-002    -6.8409162883031893E-012
  -1.3299999999999992E-002    -2.2500145843706854E-011
  -1.2199999999999989E-002    -3.0506795006823850E-011
  -1.1099999999999985E-002    -2.4123637115680552E-011
  -9.9999999999999950E-003    -2.0859089195496283E-012
  -8.8999999999999913E-003     3.0313446197638427E-011
  -7.7999999999999875E-003     6.1633538550598388E-011
  -6.6999999999999837E-003     7.5163986146264961E-011
  -5.5999999999999939E-003     5.2026181973641172E-011
  -4.4999999999999901E-003    -1.9254162500481620E-011
  -3.3999999999999864E-003    -1.2589126963113983E-010
  -2.2999999999999826E-003    -2.1675182482194799E-010
  -1.1999999999999927E-003    -2.1112982195869989E-010
  -9.9999999999988987E-005    -4.4943396226848620E-011
   1.0000000000000148E-003     2.5953891813479402E-010
   2.1000000000000185E-003     5.5106208485256047E-010
   3.2000000000000084E-003     5.9456700673976570E-010
   4.3000000000000121E-003     2.1937723859721814E-010
   5.4000000000000159E-003    -5.0341092405759014E-010
   6.5000000000000058E-003    -1.1963421364669102E-009
   7.6000000000000234E-003    -1.3356145078802228E-009
   8.7000000000000133E-003    -5.9977195432381336E-010
   9.8000000000000032E-003     8.0804313240534498E-010
   1.0900000000000021E-002     2.1376262981931404E-009
   1.2000000000000011E-002     2.4816100285818266E-009
   1.3100000000000001E-002     1.3814677179979640E-009
   1.4200000000000018E-002    -7.7210804416694145E-010
   1.5300000000000008E-002    -2.8850200006758087E-009
   1.6400000000000026E-002    -3.8043492800454715E-009
   1.7500000000000016E-002    -3.0058948663480578E-009
   1.8600000000000005E-002    -8.1101109161707541E-010
   1.9700000000000023E-002     1.9763382042015110E-009
   2.0800000000000013E-002     4.5811829885167299E-009
   2.1900000000000003E-002     6.3527987315126211E-009
   2.3000000000000020E-002     6.3916254511298121E-009
   2.4100000000000010E-002     3.3959819401019331E-009
   2.5200000000000000E-002    -3.4540084126177817E-009
   2.6300000000000018E-002    -1.2705917207256334E-008
   2.7400000000000008E-002    -1.9499333703265620E-008
   2.8500000000000025E-002    -1.7111403849412454E-008
   2.9600000000000015E-002    -1.6237357014503573E-009
   3.0700000000000005E-002     2.2867499893663989E-008
   3.1800000000000023E-002     4.3105927716169390E-008
   3.2900000000000013E-002     4.2741167050053264E-008
   3.4000000000000002E-002     1.3685498956306219E-008
   3.5100000000000020E-002    -3.4555117878198871E-008
   3.6200000000000010E-002    -7.5842216062937950E-008
   3.7300000000000028E-002    -8.1137876861703262E-008
   3.8400000000000017E-002    -3.7975702582571103E-008
   3.9500000000000007E-002     3.7521328266620912E-008
   4.0600000000000025E-002     1.0619566381819823E-007
   4.1700000000000015E-002     1.2755523925989110E-007
   4.2800000000000005E-002     8.4197637306715478E-008
   4.3900000000000022E-002    -7.2954766672239657E-009
   4.5000000000000012E-002    -1.0585451093447773E-007
   4.6100000000000002E-002    -1.6802563607143384E-007
   4.7200000000000020E-002    -1.6698639626611111E-007
   4.8300000000000010E-002    -9.8264870018738293E-008
   4.9400000000000027E-002     2.4491599859288726E-008
   5.0500000000000017E-002     1.7222086512447277E-007
   5.1600000000000007E-002     2.9659469191756216E-007
   5.2700000000000025E-002     3.3023397350007144E-007
   5.3800000000000014E-002     2.0907053510654805E-007
   5.4900000000000004E-002    -7.9459645974111481E-008
   5.6000000000000022E-002    -4.4896029294250184E-007
   5.7100000000000012E-002    -7.1403218271370861E-007
   5.8200000000000002E-002    -6.6810054022425902E-007
   5.9300000000000019E-002    -2.1645406889092556E-007
   6.0400000000000009E-002     5.1428946790110786E-007
   6.1500000000000027E-002     1.1805267376985284E-006
   6.2600000000000017E-002     1.3737060271523660E-006
   6.3700000000000007E-002     8.5652123971158289E-007
   6.4800000000000024E-002    -2.5342731646560424E-007
   6.5900000000000014E-002    -1.4798459915255080E-006
   6.7000000000000004E-002    -2.1941511931800051E-006
   6.8100000000000022E-002    -1.9352698927832535E-006
   6.9200000000000012E-002    -6.7170873307986767E-007
   7.0300000000000029E-002     1.1381674767108052E-006
   7.1400000000000019E-002     2.7222822609473951E-006
   7.2500000000000009E-002     3.3217493182746693E-006
   7.3600000000000027E-002     2.5207089038303820E-006
   7.4700000000000016E-002     4.4827146439274657E-007
   7.5800000000000006E-002    -2.2143738078739261E-006
   7.6900000000000024E-002    -4.4249841266719159E-006
   7.8000000000000014E-002    -5.1292190619278699E-006
   7.9100000000000004E-002    -3.6887233818561072E-006
   8.0200000000000021E-002    -2.5762824407138396E-007
   8.1300000000000011E-002     4.0697368604014628E-006
   8.2400000000000029E-002     7.5009193096775562E-006
   8.3500000000000019E-002     8.2085662143072113E-006
   8.4600000000000009E-002     5.2219588724256027E-006
   8.5700000000000026E-002    -8.5577289610228036E-007
   8.6800000000000016E-002    -7.7516033343272284E-006
   8.7900000000000006E-002    -1.2281380804779474E-005
   8.9000000000000024E-002    -1.1777125109802000E-005
   9.0100000000000013E-002    -5.5694604270684067E-006
   9.1200000000000003E-002     4.2667170419008471E-006
   9.2300000000000021E-002     1.3461954949889332E-005
   9.3400000000000011E-002     1.7357950127916411E-005
   9.4500000000000028E-002     1.3237614439276513E-005
   9.5600000000000018E-002     2.0357349512778455E-006
   9.6700000000000008E-002    -1.1568297850317322E-005
   9.7800000000000026E-002    -2.0966581359971315E-005
   9.8900000000000016E-002    -2.0681220121332444E-005
  0.10000000000000001         -9.2786776804132387E-006
  0.10110000000000002          9.3234575615497306E-006
  0.10220000000000001          2.6966035875375383E-005
  0.10330000000000003          3.4495835279813036E-005
  0.10440000000000002          2.5870103854686022E-005
  0.10550000000000001          1.3896216159992036E-006
  0.10660000000000003         -3.1388080969918519E-005
  0.10770000000000002         -5.9652546042343602E-005
  0.10880000000000001         -6.9786357926204801E-005
  0.10990000000000003         -5.2838797273579985E-005
  0.11100000000000002         -9.0654430096037686E-006
  0.11210000000000001          5.0411417760187760E-005
  0.11320000000000002          1.0604909766698256E-004
  0.11430000000000001          1.3627088628709316E-004
  0.11540000000000003          1.2586863886099309E-004
  0.11650000000000002          7.3096060077659786E-005
  0.11760000000000001         -8.0442914622835815E-006
  0.11870000000000003         -9.2236463387962431E-005
  0.11980000000000002         -1.5293956676032394E-004
  0.12090000000000001         -1.7396247130818665E-004
  0.12200000000000003         -1.5688339772168547E-004
  0.12310000000000001         -1.1995791282970458E-004
  0.12420000000000003         -8.7990250904113054E-005
  0.12530000000000002         -7.7334640081971884E-005
  0.12640000000000001         -8.3338156400714070E-005
  0.12750000000000003         -7.7312601206358522E-005
  0.12860000000000002         -1.6300509741995484E-005
  0.12970000000000001          1.3694202061742544E-004
  0.13080000000000003          3.9149101939983666E-004
  0.13190000000000002          7.1308255428448319E-004
  0.13300000000000001          1.0237263049930334E-003
  0.13410000000000000          1.2179019395262003E-003
  0.13520000000000004          1.1904631974175572E-003
  0.13630000000000003          8.6647621355950832E-004
  0.13740000000000002          2.2216116485651582E-004
  0.13850000000000001         -7.1054539876058698E-004
  0.13960000000000000         -1.8573495326563716E-003
  0.14070000000000005         -3.1281209085136652E-003
  0.14180000000000004         -4.4473996385931969E-003
  0.14290000000000003         -5.7790311984717846E-003
  0.14400000000000002         -7.1375737898051739E-003
  0.14510000000000001         -8.5840243846178055E-003
  0.14620000000000000         -1.0209319181740284E-002
  0.14730000000000004         -1.2113500386476517E-002
  0.14840000000000003         -1.4391064643859863E-002
  0.14950000000000002         -1.7131542786955833E-002
  0.15060000000000001         -2.0438423380255699E-002
  0.15170000000000000         -2.4461237713694572E-002
  0.15280000000000005         -2.9428150504827499E-002
  0.15390000000000004         -3.5662725567817688E-002
  0.15500000000000003         -4.3572224676609039E-002
  0.15610000000000002         -5.3610090166330338E-002
  0.15720000000000001         -6.6223300993442535E-002
  0.15830000000000000         -8.1810854375362396E-002
  0.15940000000000004        -0.10071620345115662
  0.16050000000000003        -0.12326680868864059
  0.16160000000000002        -0.14984908699989319
  0.16270000000000001        -0.18100345134735107
  0.16380000000000000        -0.21749557554721832
  0.16490000000000005        -0.26033875346183777
  0.16600000000000004        -0.31075748801231384
  0.16710000000000003        -0.37011200189590454
  0.16820000000000002        -0.43981978297233582
  0.16930000000000001        -0.52130490541458130
  0.17040000000000000        -0.61599588394165039
  0.17150000000000004        -0.72538346052169800
  0.17260000000000003        -0.85112178325653076
  0.17370000000000002        -0.99507141113281250
  0.17480000000000001         -1.1593701839447021
  0.17590000000000000         -1.3463569879531860
  0.17700000000000005         -1.5585715770721436
  0.17810000000000004         -1.7985539436340332
  0.17920000000000003         -2.0688576698303223
  0.18030000000000002         -2.3718729019165039
  0.18140000000000001         -2.7098441123962402
  0.18250000000000000         -3.0848093032836914
  0.18360000000000004         -3.4986829757690430
  0.18470000000000003         -3.9530735015869141
  0.18580000000000002         -4.4494271278381348
  0.18690000000000001         -4.9887909889221191
  0.18800000000000000         -5.5718889236450195
  0.18910000000000005         -6.1988749504089355
  0.19020000000000004         -6.8690748214721680
  0.19130000000000003         -7.5809750556945801
  0.19240000000000002         -8.3317356109619141
  0.19350000000000001         -9.1171655654907227
  0.19460000000000005         -9.9318027496337891
  0.19570000000000004         -10.768913269042969
  0.19680000000000003         -11.620276451110840
  0.19790000000000002         -12.476353645324707
  0.19900000000000001         -13.326242446899414
  0.20010000000000000         -14.156983375549316
  0.20120000000000005         -14.953820228576660
  0.20230000000000004         -15.700271606445312
  0.20340000000000003         -16.378242492675781
  0.20450000000000002         -16.967346191406250
  0.20560000000000000         -17.446390151977539
  0.20670000000000005         -17.792501449584961
  0.20780000000000004         -17.983434677124023
  0.20890000000000003         -17.995367050170898
