 -0.12000000000000000          0.0000000000000000
 -0.11889999999999999          0.0000000000000000
 -0.11780000000000000          0.0000000000000000
 -0.11670000000000000          0.0000000000000000
 -0.11559999999999999          0.0000000000000000
 -0.11449999999999999          0.0000000000000000
 -0.11340000000000000          0.0000000000000000
 -0.11230000000000000          0.0000000000000000
 -0.11119999999999999          6.3657398796657105E-011
 -0.11009999999999999          1.2731479759331421E-010
 -0.10900000000000000          1.2731479759331421E-010
 -0.10790000000000000          2.9018819377340296E-019
 -0.10679999999999999         -1.2731479759331421E-010
 -0.10569999999999999         -3.8194439277994263E-010
 -0.10460000000000000         -3.8194436502436702E-010
 -0.10349999999999999         -1.2731476983773860E-010
 -0.10239999999999999          3.8194442053551825E-010
 -0.10130000000000000          8.9120361090877509E-010
 -0.10020000000000000          3.8194442053551825E-010
  -9.9099999999999994E-002    -1.1458330950731010E-009
  -9.7999999999999990E-002    -1.1458329840507986E-009
  -9.6899999999999986E-002     8.9120377744222878E-010
  -9.5799999999999996E-002     1.9097221581887425E-009
  -9.4699999999999993E-002    -1.2731460330428490E-010
  -9.3599999999999989E-002    -4.2013881262903396E-009
  -9.2499999999999999E-002    -1.2731474208216298E-010
  -9.1399999999999995E-002     1.0057868315982432E-008
  -9.0299999999999991E-002     1.0057868315982432E-008
  -8.9200000000000002E-002    -1.0312499298947841E-008
  -8.8099999999999984E-002    -1.4386572821933896E-008
  -8.6999999999999994E-002     5.9837943489071677E-009
  -8.5899999999999990E-002     1.4131940950790067E-008
  -8.4799999999999986E-002     5.9837939048179578E-009
  -8.3699999999999997E-002    -2.1643531411541517E-009
  -8.2599999999999993E-002    -2.1643531411541517E-009
  -8.1499999999999989E-002     1.4131940950790067E-008
  -8.0399999999999999E-002     3.0428235930912706E-008
  -7.9299999999999995E-002     3.0428235930912706E-008
  -7.8199999999999992E-002     4.6724530022856925E-008
  -7.7100000000000002E-002     4.6724526470143246E-008
  -7.5999999999999984E-002    -2.1643558056894108E-009
  -7.4899999999999994E-002    -3.4756943989577849E-008
  -7.3799999999999991E-002    -3.4756943989577849E-008
  -7.2699999999999987E-002    -9.9942120357354725E-008
  -7.1599999999999997E-002    -1.3253470854124316E-007
  -7.0499999999999993E-002    -3.4756943989577849E-008
  -6.9399999999999989E-002     9.5613408745975903E-008
  -6.8300000000000000E-002     1.6079857800832542E-007
  -6.7199999999999996E-002     3.0428225272771670E-008
  -6.6099999999999992E-002    -1.6512730383055896E-007
  -6.5000000000000002E-002    -1.6512730383055896E-007
  -6.3899999999999985E-002    -9.9942127462782082E-008
  -6.2799999999999995E-002    -9.9942127462782082E-008
  -6.1699999999999991E-002     1.6079857800832542E-007
  -6.0599999999999994E-002     2.9116893074387917E-007
  -5.9499999999999990E-002    -9.9942127462782082E-008
  -5.8399999999999994E-002    -2.3031248019833583E-007
  -5.7299999999999990E-002    -2.3031248019833583E-007
  -5.6199999999999986E-002    -9.9942127462782082E-008
  -5.5099999999999996E-002     1.6079857800832542E-007
  -5.3999999999999992E-002     4.2153928347943292E-007
  -5.2899999999999989E-002     1.4645020200987346E-006
  -5.1799999999999985E-002     1.4645020200987346E-006
  -5.0699999999999995E-002     1.6079849274319713E-007
  -4.9599999999999991E-002    -8.8216432914123288E-007
  -4.8499999999999988E-002    -1.6643863318677177E-006
  -4.7399999999999998E-002    -1.4036455695531913E-006
  -4.6299999999999994E-002    -9.9942063513935864E-008
  -4.5199999999999990E-002     9.4302072284335736E-007
  -4.4099999999999986E-002     6.8227996052883100E-007
  -4.2999999999999997E-002     1.6079854958661599E-007
  -4.1899999999999993E-002     1.6079854958661599E-007
  -4.0799999999999989E-002    -9.9942155884491513E-008
  -3.9699999999999985E-002    -9.9942155884491513E-008
  -3.8599999999999995E-002     6.8227996052883100E-007
  -3.7499999999999992E-002     1.4645020200987346E-006
  -3.6399999999999988E-002     1.2037612577842083E-006
  -3.5299999999999984E-002    -6.2142368051354424E-007
  -3.4199999999999994E-002    -2.1858679701836081E-006
  -3.3099999999999991E-002    -2.4466087324981345E-006
  -3.1999999999999987E-002    -1.9251274352427572E-006
  -3.0899999999999997E-002    -9.9942482734149962E-008
  -2.9799999999999993E-002     2.2467238522949629E-006
  -2.8699999999999989E-002     1.9859830899804365E-006
  -2.7599999999999986E-002    -3.6068325925953104E-007
  -2.6499999999999996E-002    -1.0125349945155904E-006
  -2.5399999999999992E-002    -1.4036460243005422E-006
  -2.4299999999999988E-002    -2.1206831206654897E-006
  -2.3199999999999985E-002    -6.5401667370679206E-007
  -2.2099999999999995E-002     2.4748719624767546E-006
  -2.0999999999999991E-002     2.8333906811894849E-006
  -1.9899999999999987E-002    -8.8216438598465174E-007
  -1.8799999999999983E-002    -3.8806824704806786E-006
  -1.7699999999999994E-002    -1.1429051482991781E-006
  -1.6599999999999990E-002     4.5933902583783492E-006
  -1.5499999999999986E-002     5.8970940699509811E-006
  -1.4399999999999996E-002     2.7682058316713665E-006
  -1.3299999999999992E-002    -1.9251269804954063E-006
  -1.2199999999999989E-002    -4.5325341488933191E-006
  -1.1099999999999985E-002     1.6079870590601786E-007
  -9.9999999999999950E-003     5.3756130000692792E-006
  -8.8999999999999913E-003     3.8111688809294719E-006
  -7.7999999999999875E-003    -3.4895708722615382E-006
  -6.6999999999999837E-003    -1.1833273674710654E-005
  -5.5999999999999939E-003    -1.1833273674710654E-005
  -4.4999999999999901E-003    -8.8216421545439516E-007
  -3.3999999999999864E-003     1.1111907951999456E-005
  -2.2999999999999826E-003     1.3197833141020965E-005
  -1.1999999999999927E-003     3.8111679714347702E-006
  -9.9999999999988987E-005    -8.7043863459257409E-006
   1.0000000000000148E-003    -1.0790312444441952E-005
   2.1000000000000185E-003     1.7252415318580461E-006
   3.2000000000000084E-003     1.3197832231526263E-005
   4.3000000000000121E-003     6.9400557549670339E-006
   5.4000000000000159E-003    -9.2258678705547936E-006
   6.5000000000000058E-003    -1.5483645256608725E-005
   7.6000000000000234E-003    -6.6184607021568809E-006
   8.7000000000000133E-003     6.4185746850853320E-006
   9.8000000000000032E-003     1.2676351616391912E-005
   1.0900000000000021E-002     4.8541305659455247E-006
   1.2000000000000011E-002    -7.6614232966676354E-006
   1.3100000000000001E-002    -8.1829048212966882E-006
   1.4200000000000018E-002     2.2467229428002611E-006
   1.5300000000000008E-002     1.2937091923959088E-005
   1.6400000000000026E-002     1.1372647350071929E-005
   1.7500000000000016E-002    -4.5325355131353717E-006
   1.8600000000000005E-002    -1.8351793187321164E-005
   1.9700000000000023E-002    -1.4440682207350619E-005
   2.0800000000000013E-002     3.8111675166874193E-006
   2.1900000000000003E-002     1.8037831978290342E-005
   2.3000000000000020E-002     1.4925239156582393E-005
   2.4100000000000010E-002     3.2376010494772345E-007
   2.5200000000000000E-002    -1.2582904673763551E-005
   2.6300000000000018E-002    -1.5059941688377876E-005
   2.7400000000000008E-002    -5.8036466725752689E-006
   2.8500000000000025E-002     6.7119071900378913E-006
   2.9600000000000015E-002     8.7978323790594004E-006
   3.0700000000000005E-002    -1.1103140877821716E-006
   3.1800000000000023E-002    -1.1279201316938270E-005
   3.2900000000000013E-002    -9.1932752184220590E-006
   3.4000000000000002E-002     4.6259820010163821E-006
   3.5100000000000020E-002     1.6880794646567665E-005
   3.6200000000000010E-002     1.5837831597309560E-005
   3.7300000000000028E-002     1.2363515224933508E-006
   3.8400000000000017E-002    -1.3104387107887305E-005
   3.9500000000000007E-002    -1.5711793821537867E-005
   4.0600000000000025E-002    -6.5858694142661989E-006
   4.1700000000000015E-002     6.4511655182286631E-006
   4.2800000000000005E-002     1.0883757568080910E-005
   4.3900000000000022E-002     3.3222772799490485E-006
   4.5000000000000012E-002    -5.8036471273226198E-006
   4.6100000000000002E-002    -6.0643878896371461E-006
   4.7200000000000020E-002     3.8437588045781013E-006
   4.8300000000000010E-002     1.4012646715855226E-005
   4.9400000000000027E-002     1.4012645806360524E-005
   5.0500000000000017E-002     3.0615358355134958E-006
   5.1600000000000007E-002    -9.9754997791023925E-006
   5.2700000000000025E-002    -1.3886609849578235E-005
   5.3800000000000014E-002    -6.0643883443844970E-006
   5.4900000000000004E-002     4.8867213990888558E-006
   5.6000000000000022E-002     8.4067205534665845E-006
   5.7100000000000012E-002     2.8007950731989695E-006
   5.8200000000000002E-002    -4.7606854423065670E-006
   5.9300000000000019E-002    -6.9769812398590147E-006
   6.0400000000000009E-002    -3.1962410957930842E-006
   6.1500000000000027E-002     1.7578322513145395E-006
   6.2600000000000017E-002     3.4526467516116099E-006
   6.3700000000000007E-002     1.2363506129986490E-006
   6.4800000000000024E-002    -1.8273527757628472E-006
   6.5900000000000014E-002    -2.4140194909705315E-006
   6.7000000000000004E-002    -5.8883449582936009E-007
   6.8100000000000022E-002     3.8894319231985719E-007
   6.9200000000000012E-002    -1.0451307161929435E-006
   7.0300000000000029E-002    -2.7399453301768517E-006
   7.1400000000000019E-002    -1.5666122408219962E-006
   7.2500000000000009E-002     2.7030166620534146E-006
   7.3600000000000027E-002     6.0926458900212310E-006
   7.4700000000000016E-002     4.6911645767977461E-006
   7.5800000000000006E-002    -3.9327917988885019E-007
   7.6900000000000024E-002    -3.5221676171204308E-006
   7.8000000000000014E-002    -1.7621678125578910E-006
   7.9100000000000004E-002     2.6215352590952534E-006
   8.0200000000000021E-002     5.5874606914585456E-006
   8.1300000000000011E-002     3.5667205793288304E-006
   8.2400000000000029E-002    -2.7562414288695436E-006
   8.3500000000000019E-002    -8.1014259194489568E-006
   8.4600000000000009E-002    -7.7999447967158630E-006
   8.5700000000000026E-002    -1.6725382465665461E-006
   8.6800000000000016E-002     6.4185715018538758E-006
   8.7900000000000006E-002     1.0847089470189530E-005
   8.9000000000000024E-002     8.6348672994063236E-006
   9.0100000000000013E-002     1.7822756035457132E-006
   9.1200000000000003E-002    -4.8706865527492482E-006
   9.2300000000000021E-002    -6.6958714342035819E-006
   9.3400000000000011E-002    -3.6871679185424000E-006
   9.4500000000000028E-002    -2.0383494359066390E-007
   9.5600000000000018E-002     2.4635022555230535E-007
   9.6700000000000008E-002    -2.3997604330361355E-006
   9.7800000000000026E-002    -5.2006857913511340E-006
   9.8900000000000016E-002    -4.8981860345520545E-006
  0.10000000000000001         -7.6911254609512980E-007
  0.10110000000000002          4.4757475734513719E-006
  0.10220000000000001          6.6706547841022257E-006
  0.10330000000000003          4.2328310883021913E-006
  0.10440000000000002         -4.1186720523000986E-007
  0.10550000000000001         -3.5392276913626119E-006
  0.10660000000000003         -3.0228388823161367E-006
  0.10770000000000002          4.3413990624685539E-007
  0.10880000000000001          3.9053779801179189E-006
  0.10990000000000003          4.5005749598203693E-006
  0.11100000000000002          1.5028208508738317E-006
  0.11210000000000001         -3.1528265935776290E-006
  0.11320000000000002         -6.3862403294479009E-006
  0.11430000000000001         -6.0229476730455644E-006
  0.11540000000000003         -2.0473842141655041E-006
  0.11650000000000002          3.1652655252401019E-006
  0.11760000000000001          6.4308901528420392E-006
  0.11870000000000003          6.0530833252414595E-006
  0.11980000000000002          2.8341512461338425E-006
  0.12090000000000001         -5.6762053191050654E-007
  0.12200000000000003         -1.7321929135505343E-006
  0.12310000000000001         -4.5806615389665239E-007
  0.12420000000000003          1.0796898095577490E-006
  0.12530000000000002          3.4575188578855887E-007
  0.12640000000000001         -2.9033933515165700E-006
  0.12750000000000003         -5.7865804592438508E-006
  0.12860000000000002         -4.2880378714471590E-006
  0.12970000000000001          2.5662805001047673E-006
  0.13080000000000003          1.0595380445010960E-005
  0.13190000000000002          1.3198960004956461E-005
  0.13300000000000001          6.8485378506011330E-006
  0.13410000000000000         -5.1496567721187603E-006
  0.13520000000000004         -1.4551791537087411E-005
  0.13630000000000003         -1.4842605196463410E-005
  0.13740000000000002         -6.9079355853318702E-006
  0.13850000000000001          1.6321331486324198E-006
  0.13960000000000000          3.4856727779697394E-006
  0.14070000000000005         -1.5074742805154528E-006
  0.14180000000000004         -6.3735533331055194E-006
  0.14290000000000003         -4.0110799091053195E-006
  0.14400000000000002          5.4973183978290763E-006
  0.14510000000000001          1.4408968127099797E-005
  0.14620000000000000          1.4358105545397848E-005
  0.14730000000000004          4.4938346945855301E-006
  0.14840000000000003         -7.4911822594003752E-006
  0.14950000000000002         -1.2340872672211844E-005
  0.15060000000000001         -7.6879659900441766E-006
  0.15170000000000000          3.3658403708614060E-007
  0.15280000000000005          3.7095867355674272E-006
  0.15390000000000004          4.8771875071906834E-007
  0.15500000000000003         -3.7351198898250004E-006
  0.15610000000000002         -2.3317109025811078E-006
  0.15720000000000001          4.8679230530979112E-006
  0.15830000000000000          1.0979892977047712E-005
  0.15940000000000004          9.4008400992606767E-006
  0.16050000000000003          9.2317827693477739E-007
  0.16160000000000002         -7.0724017859902233E-006
  0.16270000000000001         -8.1220723586739041E-006
  0.16380000000000000         -3.1855288398219272E-006
  0.16490000000000005          8.1403760532339220E-007
  0.16600000000000004         -1.0676550346033764E-006
  0.16710000000000003         -6.0897305047546979E-006
  0.16820000000000002         -6.7137602854927536E-006
  0.16930000000000001          6.5043190033975407E-007
  0.17040000000000000          1.0541881238168571E-005
  0.17150000000000004          1.3344888429855928E-005
  0.17260000000000003          5.4821693993289955E-006
  0.17370000000000002         -6.0090537772339303E-006
  0.17480000000000001         -1.0008092431235127E-005
  0.17590000000000000         -2.7448490982351359E-006
  0.17700000000000005          7.8380771810770966E-006
  0.17810000000000004          9.7813153843162581E-006
  0.17920000000000003         -3.7101034422448720E-007
  0.18030000000000002         -1.3270192539494019E-005
  0.18140000000000001         -1.5821824490558356E-005
  0.18250000000000000         -4.5698748181166593E-006
  0.18360000000000004          1.0342782843508758E-005
  0.18470000000000003          1.5013954907772131E-005
  0.18580000000000002          5.7241095419158228E-006
  0.18690000000000001         -7.3486226028762758E-006
  0.18800000000000000         -1.0644675057847053E-005
  0.18910000000000005         -1.1862795190609177E-006
  0.19020000000000004          1.0374953490099870E-005
  0.19130000000000003          1.0843655218195636E-005
  0.19240000000000002         -1.6572982985962881E-006
  0.19350000000000001         -1.5406207239720970E-005
  0.19460000000000005         -1.6895706721697934E-005
  0.19570000000000004         -4.5571632654173300E-006
  0.19680000000000003          9.8865721156471409E-006
  0.19790000000000002          1.3627689440909307E-005
  0.19900000000000001          5.5869759307825007E-006
  0.20010000000000000         -3.3870144307002192E-006
  0.20120000000000005         -2.8094866593164625E-006
  0.20230000000000004          5.9486415011633653E-006
  0.20340000000000003          1.1354929483786691E-005
  0.20450000000000002          4.6989803195174318E-006
  0.20560000000000000         -9.7515712695894763E-006
  0.20670000000000005         -1.8577868104330264E-005
  0.20780000000000004         -1.3125234545441344E-005
  0.20890000000000003          1.2775439017786994E-006
