 -0.12000000000000000          0.0000000000000000
 -0.11889999999999999          0.0000000000000000
 -0.11780000000000000          0.0000000000000000
 -0.11670000000000000          0.0000000000000000
 -0.11559999999999999          0.0000000000000000
 -0.11449999999999999         -1.5575916072338089E-014
 -0.11340000000000000         -7.8273908079955212E-014
 -0.11230000000000000         -1.3448394958412435E-013
 -0.11119999999999999          6.3466904800212054E-014
 -0.11009999999999999          6.6941043637067099E-013
 -0.10900000000000000          9.5240362905230080E-013
 -0.10790000000000000         -9.0690535593448973E-013
 -0.10679999999999999         -5.7827995864068171E-012
 -0.10569999999999999         -9.9639871006806935E-012
 -0.10460000000000000         -4.6905430928223524E-012
 -0.10349999999999999          1.5980708076290817E-011
 -0.10239999999999999          4.1995764504809685E-011
 -0.10130000000000000          4.3457706183636091E-011
 -0.10020000000000000         -9.0400777141841360E-012
  -9.9099999999999994E-002    -1.0597462490880005E-010
  -9.7999999999999990E-002    -1.7720441780610940E-010
  -9.6899999999999986E-002    -1.2582317132636689E-010
  -9.5799999999999996E-002     8.5013572570513674E-011
  -9.4699999999999993E-002     3.5698388689553440E-010
  -9.3599999999999989E-002     4.7898396360324114E-010
  -9.2499999999999999E-002     2.7015073511549303E-010
  -9.1399999999999995E-002    -2.4613705518206075E-010
  -9.0299999999999991E-002    -7.8950007642575315E-010
  -8.9200000000000002E-002    -9.7533681131523053E-010
  -8.8099999999999984E-002    -5.9029109378272437E-010
  -8.6999999999999994E-002     2.1954033035953557E-010
  -8.5899999999999990E-002     1.0153164975434947E-009
  -8.4799999999999986E-002     1.3555929712083525E-009
  -8.3699999999999997E-002     1.0876225475797696E-009
  -8.2599999999999993E-002     4.1112466209192178E-010
  -8.1499999999999989E-002    -3.1985303294845835E-010
  -8.0399999999999999E-002    -8.6848855884724685E-010
  -7.9299999999999995E-002    -1.2248816405602270E-009
  -7.8199999999999992E-002    -1.4872690856648774E-009
  -7.7100000000000002E-002    -1.6647672129721514E-009
  -7.5999999999999984E-002    -1.6066116215185389E-009
  -7.4899999999999994E-002    -1.1139326128173366E-009
  -7.3799999999999991E-002    -1.0205194328483103E-010
  -7.2699999999999987E-002     1.3493690609323039E-009
  -7.1599999999999997E-002     3.0740043843735521E-009
  -7.0499999999999993E-002     4.8896637849793478E-009
  -6.9399999999999989E-002     6.5470997512306894E-009
  -6.8300000000000000E-002     7.6051147601674529E-009
  -6.7199999999999996E-002     7.3847821191463936E-009
  -6.6099999999999992E-002     5.0529380679620317E-009
  -6.5000000000000002E-002    -3.2980315700648077E-010
  -6.3899999999999985E-002    -1.0028899488645493E-008
  -6.2799999999999995E-002    -2.6137254138802746E-008
  -6.1699999999999991E-002    -5.2036106978903263E-008
  -6.0599999999999994E-002    -9.2383110938953905E-008
  -5.9499999999999990E-002    -1.5247736939727474E-007
  -5.8399999999999994E-002    -2.3731740839139093E-007
  -5.7299999999999990E-002    -3.5091309769086365E-007
  -5.6199999999999986E-002    -4.9623253062236472E-007
  -5.5099999999999996E-002    -6.7575854245660594E-007
  -5.3999999999999992E-002    -8.9238892542198300E-007
  -5.2899999999999989E-002    -1.1505075008244603E-006
  -5.1799999999999985E-002    -1.4572516420230386E-006
  -5.0699999999999995E-002    -1.8239603605252341E-006
  -4.9599999999999991E-002    -2.2674660158372717E-006
  -4.8499999999999988E-002    -2.8106580884923460E-006
  -4.7399999999999998E-002    -3.4820020573533839E-006
  -4.6299999999999994E-002    -4.3143704715475906E-006
  -4.5199999999999990E-002    -5.3441031013790052E-006
  -4.4099999999999986E-002    -6.6111128944612574E-006
  -4.2999999999999997E-002    -8.1601492638583295E-006
  -4.1899999999999993E-002    -1.0042651410913095E-005
  -4.0799999999999989E-002    -1.2318573681113776E-005
  -3.9699999999999985E-002    -1.5058112694532610E-005
  -3.8599999999999995E-002    -1.8343769625062123E-005
  -3.7499999999999992E-002    -2.2273032300290652E-005
  -3.6399999999999988E-002    -2.6961262847180478E-005
  -3.5299999999999984E-002    -3.2543928682571277E-005
  -3.4199999999999994E-002    -3.9177732105599716E-005
  -3.3099999999999991E-002    -4.7041165089467540E-005
  -3.1999999999999987E-002    -5.6335760746151209E-005
  -3.0899999999999997E-002    -6.7288900027051568E-005
  -2.9799999999999993E-002    -8.0158002674579620E-005
  -2.8699999999999989E-002    -9.5234870968852192E-005
  -2.7599999999999986E-002    -1.1284917127341032E-004
  -2.6499999999999996E-002    -1.3337082054931670E-004
  -2.5399999999999992E-002    -1.5721195086371154E-004
  -2.4299999999999988E-002    -1.8482893938198686E-004
  -2.3199999999999985E-002    -2.1672442380804569E-004
  -2.2099999999999995E-002    -2.5344875757582486E-004
  -2.0999999999999991E-002    -2.9560065013356507E-004
  -1.9899999999999987E-002    -3.4382773446850479E-004
  -1.8799999999999983E-002    -3.9882762939669192E-004
  -1.7699999999999994E-002    -4.6134972944855690E-004
  -1.6599999999999990E-002    -5.3219607798382640E-004
  -1.5499999999999986E-002    -6.1221991200000048E-004
  -1.4399999999999996E-002    -7.0232152938842773E-004
  -1.3299999999999992E-002    -8.0344174057245255E-004
  -1.2199999999999989E-002    -9.1655482538044453E-004
  -1.1099999999999985E-002    -1.0426610242575407E-003
  -9.9999999999999950E-003    -1.1827785056084394E-003
  -8.8999999999999913E-003    -1.3379314914345741E-003
  -7.7999999999999875E-003    -1.5091362874954939E-003
  -6.6999999999999837E-003    -1.6973852179944515E-003
  -5.5999999999999939E-003    -1.9036291632801294E-003
  -4.4999999999999901E-003    -2.1287607960402966E-003
  -3.3999999999999864E-003    -2.3735961876809597E-003
  -2.2999999999999826E-003    -2.6388522237539291E-003
  -1.1999999999999927E-003    -2.9251230880618095E-003
  -9.9999999999988987E-005    -3.2328523229807615E-003
   1.0000000000000148E-003    -3.5623074509203434E-003
   2.1000000000000185E-003    -3.9135525003075600E-003
   3.2000000000000084E-003    -4.2864237911999226E-003
   4.3000000000000121E-003    -4.6805054880678654E-003
   5.4000000000000159E-003    -5.0951032899320126E-003
   6.5000000000000058E-003    -5.5292211472988129E-003
   7.6000000000000234E-003    -5.9815435670316219E-003
   8.7000000000000133E-003    -6.4504202455282211E-003
   9.8000000000000032E-003    -6.9338544271886349E-003
   1.0900000000000021E-002    -7.4294949881732464E-003
   1.2000000000000011E-002    -7.9346336424350739E-003
   1.3100000000000001E-002    -8.4462082013487816E-003
   1.4200000000000018E-002    -8.9608114212751389E-003
   1.5300000000000008E-002    -9.4747105613350868E-003
   1.6400000000000026E-002    -9.9838776513934135E-003
   1.7500000000000016E-002    -1.0484020225703716E-002
   1.8600000000000005E-002    -1.0970622301101685E-002
   1.9700000000000023E-002    -1.1439000256359577E-002
   2.0800000000000013E-002    -1.1884359642863274E-002
   2.1900000000000003E-002    -1.2301862239837646E-002
   2.3000000000000020E-002    -1.2686705216765404E-002
   2.4100000000000010E-002    -1.3034197501838207E-002
   2.5200000000000000E-002    -1.3339844532310963E-002
   2.6300000000000018E-002    -1.3599437661468983E-002
   2.7400000000000008E-002    -1.3809141702950001E-002
   2.8500000000000025E-002    -1.3965590856969357E-002
   2.9600000000000015E-002    -1.4065978117287159E-002
   3.0700000000000005E-002    -1.4108134433627129E-002
   3.1800000000000023E-002    -1.4090614393353462E-002
   3.2900000000000013E-002    -1.4012762345373631E-002
   3.4000000000000002E-002    -1.3874774798750877E-002
   3.5100000000000020E-002    -1.3677752576768398E-002
   3.6200000000000010E-002    -1.3423728756606579E-002
   3.7300000000000028E-002    -1.3115691021084785E-002
   3.8400000000000017E-002    -1.2757571414113045E-002
   3.9500000000000007E-002    -1.2354226782917976E-002
   4.0600000000000025E-002    -1.1911396868526936E-002
   4.1700000000000015E-002    -1.1435642838478088E-002
   4.2800000000000005E-002    -1.0934260673820972E-002
   4.3900000000000022E-002    -1.0415172204375267E-002
   4.5000000000000012E-002    -9.8867984488606453E-003
   4.6100000000000002E-002    -9.3579133972525597E-003
   4.7200000000000020E-002    -8.8374810293316841E-003
   4.8300000000000010E-002    -8.3344820886850357E-003
   4.9400000000000027E-002    -7.8577240929007530E-003
   5.0500000000000017E-002    -7.4156452901661396E-003
   5.1600000000000007E-002    -7.0161120966076851E-003
   5.2700000000000025E-002    -6.6662188619375229E-003
   5.3800000000000014E-002    -6.3720950856804848E-003
   5.4900000000000004E-002    -6.1387210153043270E-003
   5.6000000000000022E-002    -5.9697567485272884E-003
   5.7100000000000012E-002    -5.8673885650932789E-003
   5.8200000000000002E-002    -5.8321990072727203E-003
   5.9300000000000019E-002    -5.8630639687180519E-003
   6.0400000000000009E-002    -5.9570828452706337E-003
   6.1500000000000027E-002    -6.1095412820577621E-003
   6.2600000000000017E-002    -6.3139121048152447E-003
   6.3700000000000007E-002    -6.5618911758065224E-003
   6.4800000000000024E-002    -6.8434765562415123E-003
   6.5900000000000014E-002    -7.1470849215984344E-003
   6.7000000000000004E-002    -7.4597084894776344E-003
   6.8100000000000022E-002    -7.7671092003583908E-003
   6.9200000000000012E-002    -8.0540431663393974E-003
   7.0300000000000029E-002    -8.3045223727822304E-003
   7.1400000000000019E-002    -8.5020950064063072E-003
   7.2500000000000009E-002    -8.6301611736416817E-003
   7.3600000000000027E-002    -8.6722923442721367E-003
   7.4700000000000016E-002    -8.6125647649168968E-003
   7.5800000000000006E-002    -8.4358928725123405E-003
   7.6900000000000024E-002    -8.1283608451485634E-003
   7.8000000000000014E-002    -7.6775411143898964E-003
   7.9100000000000004E-002    -7.0727998390793800E-003
   8.0200000000000021E-002    -6.3055716454982758E-003
   8.1300000000000011E-002    -5.3696040995419025E-003
   8.2400000000000029E-002    -4.2611607350409031E-003
   8.3500000000000019E-002    -2.9791835695505142E-003
   8.4600000000000009E-002    -1.5254114987328649E-003
   8.5700000000000026E-002     9.5550174592062831E-005
   8.6800000000000016E-002     1.8762151012197137E-003
   8.7900000000000006E-002     3.8062578532844782E-003
   8.9000000000000024E-002     5.8726109564304352E-003
   9.0100000000000013E-002     8.0596152693033218E-003
   9.1200000000000003E-002     1.0349218733608723E-002
   9.2300000000000021E-002     1.2721214443445206E-002
   9.3400000000000011E-002     1.5153530053794384E-002
   9.4500000000000028E-002     1.7622550949454308E-002
   9.5600000000000018E-002     2.0103475078940392E-002
   9.6700000000000008E-002     2.2570701315999031E-002
   9.7800000000000026E-002     2.4998219683766365E-002
   9.8900000000000016E-002     2.7360020205378532E-002
  0.10000000000000001          2.9630491510033607E-002
  0.10110000000000002          3.1784821301698685E-002
  0.10220000000000001          3.3799383789300919E-002
  0.10330000000000003          3.5652104765176773E-002
  0.10440000000000002          3.7322785705327988E-002
  0.10550000000000001          3.8793414831161499E-002
  0.10660000000000003          4.0048412978649139E-002
  0.10770000000000002          4.1074849665164948E-002
  0.10880000000000001          4.1862603276968002E-002
  0.10990000000000003          4.2404487729072571E-002
  0.11100000000000002          4.2696319520473480E-002
  0.11210000000000001          4.2736917734146118E-002
  0.11320000000000002          4.2528074234724045E-002
  0.11430000000000001          4.2074471712112427E-002
  0.11540000000000003          4.1383534669876099E-002
  0.11650000000000002          4.0465280413627625E-002
  0.11760000000000001          3.9332099258899689E-002
  0.11870000000000003          3.7998504936695099E-002
  0.11980000000000002          3.6480881273746490E-002
  0.12090000000000001          3.4797180444002151E-002
  0.12200000000000003          3.2966628670692444E-002
  0.12310000000000001          3.1009417027235031E-002
  0.12420000000000003          2.8946379199624062E-002
  0.12530000000000002          2.6798680424690247E-002
  0.12640000000000001          2.4587526917457581E-002
  0.12750000000000003          2.2333871573209763E-002
  0.12860000000000002          2.0058151334524155E-002
  0.12970000000000001          1.7780035734176636E-002
  0.13080000000000003          1.5518202446401119E-002
  0.13190000000000002          1.3290143571794033E-002
  0.13300000000000001          1.1112004518508911E-002
  0.13410000000000000          8.9984573423862457E-003
  0.13520000000000004          6.9625996984541416E-003
  0.13630000000000003          5.0158817321062088E-003
  0.13740000000000002          3.1680611427873373E-003
  0.13850000000000001          1.4271901454776525E-003
  0.13960000000000000         -2.0036425848957151E-004
  0.14070000000000005         -1.7098778625950217E-003
  0.14180000000000004         -3.0982047319412231E-003
  0.14290000000000003         -4.3636984191834927E-003
  0.14400000000000002         -5.5061159655451775E-003
  0.14510000000000001         -6.5265102311968803E-003
  0.14620000000000000         -7.4271052144467831E-003
  0.14730000000000004         -8.2111619412899017E-003
  0.14840000000000003         -8.8828448206186295E-003
  0.14950000000000002         -9.4470875337719917E-003
  0.15060000000000001         -9.9094603210687637E-003
  0.15170000000000000         -1.0276043787598610E-002
  0.15280000000000005         -1.0553298518061638E-002
  0.15390000000000004         -1.0747947730123997E-002
  0.15500000000000003         -1.0866863653063774E-002
  0.15610000000000002         -1.0916965082287788E-002
  0.15720000000000001         -1.0905129835009575E-002
  0.15830000000000000         -1.0838110931217670E-002
  0.15940000000000004         -1.0722469538450241E-002
  0.16050000000000003         -1.0564516298472881E-002
  0.16160000000000002         -1.0370258241891861E-002
  0.16270000000000001         -1.0145365260541439E-002
  0.16380000000000000         -9.8951384425163269E-003
  0.16490000000000005         -9.6244895830750465E-003
  0.16600000000000004         -9.3379300087690353E-003
  0.16710000000000003         -9.0395687147974968E-003
  0.16820000000000002         -8.7331114336848259E-003
  0.16930000000000001         -8.4218708798289299E-003
  0.17040000000000000         -8.1087769940495491E-003
  0.17150000000000004         -7.7963890507817268E-003
  0.17260000000000003         -7.4869152158498764E-003
  0.17370000000000002         -7.1822353638708591E-003
  0.17480000000000001         -6.8839280866086483E-003
  0.17590000000000000         -6.5932939760386944E-003
  0.17700000000000005         -6.3113770447671413E-003
  0.17810000000000004         -6.0389880090951920E-003
  0.17920000000000003         -5.7767243124544621E-003
  0.18030000000000002         -5.5249934084713459E-003
  0.18140000000000001         -5.2840407006442547E-003
  0.18250000000000000         -5.0539714284241199E-003
  0.18360000000000004         -4.8347688280045986E-003
  0.18470000000000003         -4.6263122931122780E-003
  0.18580000000000002         -4.4283899478614330E-003
  0.18690000000000001         -4.2407168075442314E-003
  0.18800000000000000         -4.0629520080983639E-003
  0.18910000000000005         -3.8947167340666056E-003
  0.19020000000000004         -3.7356035318225622E-003
  0.19130000000000003         -3.5851860884577036E-003
  0.19240000000000002         -3.4430238883942366E-003
  0.19350000000000001         -3.3086694311350584E-003
  0.19460000000000005         -3.1816775444895029E-003
  0.19570000000000004         -3.0616137664765120E-003
  0.19680000000000003         -2.9480613302439451E-003
  0.19790000000000002         -2.8406223282217979E-003
  0.19900000000000001         -2.7389186434447765E-003
  0.20010000000000000         -2.6425924152135849E-003
  0.20120000000000005         -2.5513062719255686E-003
  0.20230000000000004         -2.4647458922117949E-003
  0.20340000000000003         -2.3826207034289837E-003
  0.20450000000000002         -2.3046617861837149E-003
  0.20560000000000000         -2.2306197788566351E-003
  0.20670000000000005         -2.1602611523121595E-003
  0.20780000000000004         -2.0933672785758972E-003
  0.20890000000000003         -2.0297314040362835E-003
