 -0.12000000000000000          0.0000000000000000
 -0.11889999999999999          0.0000000000000000
 -0.11780000000000000          0.0000000000000000
 -0.11670000000000000          0.0000000000000000
 -0.11559999999999999          0.0000000000000000
 -0.11449999999999999          0.0000000000000000
 -0.11340000000000000          0.0000000000000000
 -0.11230000000000000          0.0000000000000000
 -0.11119999999999999          0.0000000000000000
 -0.11009999999999999          0.0000000000000000
 -0.10900000000000000          0.0000000000000000
 -0.10790000000000000          0.0000000000000000
 -0.10679999999999999          0.0000000000000000
 -0.10569999999999999         -2.5894982780026297E-020
 -0.10460000000000000         -4.0804238005872654E-019
 -0.10349999999999999         -2.7599786900602514E-018
 -0.10239999999999999         -9.1005658258726682E-018
 -0.10130000000000000         -2.8683840180577759E-018
 -0.10020000000000000          1.1434039521470677E-016
  -9.9099999999999994E-002     5.5750665678961741E-016
  -9.7999999999999990E-002     1.2306539573075361E-015
  -9.6899999999999986E-002     1.2292838285757931E-016
  -9.5799999999999996E-002    -8.6358337812058629E-015
  -9.4699999999999993E-002    -3.0676816067855966E-014
  -9.3599999999999989E-002    -4.9306560353720719E-014
  -9.2499999999999999E-002     1.2932757383727570E-014
  -9.1399999999999995E-002     2.9011211835627826E-013
  -9.0299999999999991E-002     7.9224837410893367E-013
  -8.9200000000000002E-002     9.7363772860042941E-013
  -8.8099999999999984E-002    -6.0604087937302098E-013
  -8.6999999999999994E-002    -5.4773100117977425E-012
  -8.5899999999999990E-002    -1.2171704616426027E-011
  -8.4799999999999986E-002    -1.1848582011364517E-011
  -8.3699999999999997E-002     1.1541178603080571E-011
  -8.2599999999999993E-002     6.7205484233223700E-011
  -8.1499999999999989E-002     1.2713434471844920E-010
  -8.0399999999999999E-002     1.0108417575205308E-010
  -7.9299999999999995E-002    -1.3169533519263865E-010
  -7.8199999999999992E-002    -5.8761989718547625E-010
  -7.7100000000000002E-002    -9.8104135926035951E-010
  -7.5999999999999984E-002    -6.6053490455075803E-010
  -7.4899999999999994E-002     1.0318357279714974E-009
  -7.3799999999999991E-002     3.8842418170759174E-009
  -7.2699999999999987E-002     5.9094151794170102E-009
  -7.1599999999999997E-002     3.5513567642198041E-009
  -7.0499999999999993E-002    -5.9093334670023978E-009
  -6.9399999999999989E-002    -2.0160028313398470E-008
  -6.8300000000000000E-002    -2.8886937286642933E-008
  -6.7199999999999996E-002    -1.6731780405621066E-008
  -6.6099999999999992E-002     2.5256252200733798E-008
  -6.5000000000000002E-002     8.4101522190849209E-008
  -6.3899999999999985E-002     1.1801778754261250E-007
  -6.2799999999999995E-002     7.2471891598979710E-008
  -6.1699999999999991E-002    -7.8376025669513183E-008
  -6.0599999999999994E-002    -2.8540500807139324E-007
  -5.9499999999999990E-002    -4.1278761386820406E-007
  -5.8399999999999994E-002    -2.9419007319120283E-007
  -5.7299999999999990E-002     1.4895289268679335E-007
  -5.6199999999999986E-002     7.8825115679137525E-007
  -5.5099999999999996E-002     1.2617041420526220E-006
  -5.3999999999999992E-002     1.1074610029027099E-006
  -5.2899999999999989E-002     4.1373880321771139E-008
  -5.1799999999999985E-002    -1.7416606397091527E-006
  -5.0699999999999995E-002    -3.4274726203875616E-006
  -4.9599999999999991E-002    -3.7735755995527143E-006
  -4.8499999999999988E-002    -1.6938508906605421E-006
  -4.7399999999999998E-002     2.8964941520825960E-006
  -4.6299999999999994E-002     8.3656368587980978E-006
  -4.5199999999999990E-002     1.1382004231563769E-005
  -4.4099999999999986E-002     8.2083679444622248E-006
  -4.2999999999999997E-002    -2.7617527393886121E-006
  -4.1899999999999993E-002    -1.8345912394579500E-005
  -4.0799999999999989E-002    -2.9911014280514792E-005
  -3.9699999999999985E-002    -2.6663421522243880E-005
  -3.8599999999999995E-002    -2.7450605557532981E-006
  -3.7499999999999992E-002     3.5439617931842804E-005
  -3.6399999999999988E-002     6.7615204898174852E-005
  -3.5299999999999984E-002     6.8128480052109808E-005
  -3.4199999999999994E-002     2.2644966520601884E-005
  -3.3099999999999991E-002    -5.6556364143034443E-005
  -3.1999999999999987E-002    -1.2919280561618507E-004
  -3.0899999999999997E-002    -1.4552965876646340E-004
  -2.9799999999999993E-002    -7.7237767982296646E-005
  -2.8699999999999989E-002     5.8571604313328862E-005
  -2.7599999999999986E-002     2.0027294522151351E-004
  -2.6499999999999996E-002     2.7040595887228847E-004
  -2.5399999999999992E-002     2.1571910474449396E-004
  -2.4299999999999988E-002     3.4899494494311512E-005
  -2.3199999999999985E-002    -2.1843246940989047E-004
  -2.2099999999999995E-002    -4.5092089567333460E-004
  -2.0999999999999991E-002    -5.4965121671557426E-004
  -1.9899999999999987E-002    -4.0779693517833948E-004
  -1.8799999999999983E-002     2.7315167244523764E-005
  -1.7699999999999994E-002     6.7820784170180559E-004
  -1.6599999999999990E-002     1.2757191434502602E-003
  -1.5499999999999986E-002     1.3998759677633643E-003
  -1.4399999999999996E-002     6.8810518132522702E-004
  -1.3299999999999992E-002    -8.4501260425895452E-004
  -1.2199999999999989E-002    -2.5857815053313971E-003
  -1.1099999999999985E-002    -3.4521282650530338E-003
  -9.9999999999999950E-003    -2.4621966294944286E-003
  -8.8999999999999913E-003     5.0739338621497154E-004
  -7.7999999999999875E-003     4.2881793342530727E-003
  -6.6999999999999837E-003     6.7635732702910900E-003
  -5.5999999999999939E-003     5.9886532835662365E-003
  -4.4999999999999901E-003     1.4995140954852104E-003
  -3.3999999999999864E-003    -5.0514172762632370E-003
  -2.2999999999999826E-003    -1.0480659082531929E-002
  -1.1999999999999927E-003    -1.1662675067782402E-002
  -9.9999999999988987E-005    -7.2253216058015823E-003
   1.0000000000000148E-003     1.6263535944744945E-003
   2.1000000000000185E-003     1.1552803218364716E-002
   3.2000000000000084E-003     1.8408756703138351E-002
   4.3000000000000121E-003     1.8724223598837852E-002
   5.4000000000000159E-003     1.0868209414184093E-002
   6.5000000000000058E-003    -4.1125635616481304E-003
   7.6000000000000234E-003    -2.1951269358396530E-002
   8.7000000000000133E-003    -3.5405088216066360E-002
   9.8000000000000032E-003    -3.6198820918798447E-002
   1.0900000000000021E-002    -1.9007906317710876E-002
   1.2000000000000011E-002     1.3891574926674366E-002
   1.3100000000000001E-002     5.0387650728225708E-002
   1.4200000000000018E-002     7.1721479296684265E-002
   1.5300000000000008E-002     6.1385415494441986E-002
   1.6400000000000026E-002     1.5854412689805031E-002
   1.7500000000000016E-002    -4.9426712095737457E-002
   1.8600000000000005E-002   -0.10406213998794556
   1.9700000000000023E-002   -0.11663660407066345
   2.0800000000000013E-002    -7.2092793881893158E-002
   2.1900000000000003E-002     1.7087779939174652E-002
   2.3000000000000020E-002    0.11308564245700836
   2.4100000000000010E-002    0.16861332952976227
   2.5200000000000000E-002    0.14943799376487732
   2.6300000000000018E-002     5.2930884063243866E-002
   2.7400000000000008E-002    -8.6315445601940155E-002
   2.8500000000000025E-002   -0.20725522935390472
   2.9600000000000015E-002   -0.24648435413837433
   3.0700000000000005E-002   -0.16734735667705536
   3.1800000000000023E-002     1.7207738012075424E-002
   3.2900000000000013E-002    0.23921369016170502
   3.4000000000000002E-002    0.39470887184143066
   3.5100000000000020E-002    0.38529947400093079
   3.6200000000000010E-002    0.16863267123699188
   3.7300000000000028E-002   -0.20504449307918549
   3.8400000000000017E-002   -0.59299868345260620
   3.9500000000000007E-002   -0.80668777227401733
   4.0600000000000025E-002   -0.69278550148010254
   4.1700000000000015E-002   -0.21544425189495087
   4.2800000000000005E-002    0.50086277723312378
   4.3900000000000022E-002     1.1961711645126343
   4.5000000000000012E-002     1.5670217275619507
   4.6100000000000002E-002     1.3927392959594727
   4.7200000000000020E-002    0.64278769493103027
   4.8300000000000010E-002   -0.48543038964271545
   4.9400000000000027E-002    -1.6228468418121338
   5.0500000000000017E-002    -2.3639395236968994
   5.1600000000000007E-002    -2.4291863441467285
   5.2700000000000025E-002    -1.7859238386154175
   5.3800000000000014E-002   -0.67029464244842529
   5.4900000000000004E-002    0.50915783643722534
   5.6000000000000022E-002     1.3550269603729248
   5.7100000000000012E-002     1.6771783828735352
   5.8200000000000002E-002     1.6097918748855591
   5.9300000000000019E-002     1.5772235393524170
   6.0400000000000009E-002     2.0909810066223145
   6.1500000000000027E-002     3.4344913959503174
   6.2600000000000017E-002     5.3611230850219727
   6.3700000000000007E-002     6.9628720283508301
   6.4800000000000024E-002     6.8353028297424316
   6.5900000000000014E-002     3.5609126091003418
   6.7000000000000004E-002    -3.6158959865570068
   6.8100000000000022E-002    -14.180994033813477
   6.9200000000000012E-002    -26.106323242187500
   7.0300000000000029E-002    -36.159221649169922
   7.1400000000000019E-002    -40.723960876464844
   7.2500000000000009E-002    -36.837726593017578
   7.3600000000000027E-002    -22.999773025512695
   7.4700000000000016E-002    0.61981528997421265
   7.5800000000000006E-002     32.675533294677734
   7.6900000000000024E-002     71.609512329101562
   7.8000000000000014E-002     116.61852264404297
   7.9100000000000004E-002     168.18113708496094
   8.0200000000000021E-002     227.96043395996094
   8.1300000000000011E-002     298.25350952148438
   8.2400000000000029E-002     381.40780639648438
   8.3500000000000019E-002     479.63162231445312
   8.4600000000000009E-002     595.39617919921875
   8.5700000000000026E-002     732.30059814453125
   8.6800000000000016E-002     896.04022216796875
   8.7900000000000006E-002     1095.0958251953125
   8.9000000000000024E-002     1340.9273681640625
   9.0100000000000013E-002     1647.6884765625000
   9.1200000000000003E-002     2031.6613769531250
   9.2300000000000021E-002     2510.6425781250000
   9.3400000000000011E-002     3103.4741210937500
   9.4500000000000028E-002     3829.8930664062500
   9.5600000000000018E-002     4710.8569335937500
   9.6700000000000008E-002     5769.5654296875000
   9.7800000000000026E-002     7033.3320312500000
   9.8900000000000016E-002     8536.0576171875000
  0.10000000000000001          10320.773437500000
  0.10110000000000002          12441.345703125000
  0.10220000000000001          14962.566406250000
  0.10330000000000003          17958.429687500000
  0.10440000000000002          21509.501953125000
  0.10550000000000001          25700.835937500000
  0.10660000000000003          30622.074218750000
  0.10770000000000002          36370.253906250000
  0.10880000000000001          43054.730468750000
  0.10990000000000003          50801.843750000000
  0.11100000000000002          59757.503906250000
  0.11210000000000001          70086.148437500000
  0.11320000000000002          81966.914062500000
  0.11430000000000001          95589.101562500000
  0.11540000000000003          111149.48437500000
  0.11650000000000002          128852.31250000000
  0.11760000000000001          148911.46875000000
  0.11870000000000003          171553.00000000000
  0.11980000000000002          197015.32812500000
  0.12090000000000001          225546.21875000000
  0.12200000000000003          257396.09375000000
  0.12310000000000001          292812.84375000000
  0.12420000000000003          332034.03125000000
  0.12530000000000002          375285.59375000000
  0.12640000000000001          422776.15625000000
  0.12750000000000003          474692.46875000000
  0.12860000000000002          531192.50000000000
  0.12970000000000001          592395.81250000000
  0.13080000000000003          658369.25000000000
  0.13190000000000002          729123.31250000000
  0.13300000000000001          804602.43750000000
  0.13410000000000000          884677.37500000000
  0.13520000000000004          969140.25000000000
  0.13630000000000003          1057692.5000000000
  0.13740000000000002          1149930.0000000000
  0.13850000000000001          1245324.3750000000
  0.13960000000000000          1343219.7500000000
  0.14070000000000005          1442827.0000000000
  0.14180000000000004          1543227.0000000000
  0.14290000000000003          1643369.7500000000
  0.14400000000000002          1742083.5000000000
  0.14510000000000001          1838068.6250000000
  0.14620000000000000          1929908.3750000000
  0.14730000000000004          2016042.7500000000
  0.14840000000000003          2094791.1250000000
  0.14950000000000002          2164360.0000000000
  0.15060000000000001          2222863.2500000000
  0.15170000000000000          2268366.2500000000
  0.15280000000000005          2298915.5000000000
  0.15390000000000004          2312559.5000000000
  0.15500000000000003          2307386.5000000000
  0.15610000000000002          2281521.0000000000
  0.15720000000000001          2233187.2500000000
  0.15830000000000000          2160708.2500000000
  0.15940000000000004          2062596.1250000000
  0.16050000000000003          1937583.5000000000
  0.16160000000000002          1784678.6250000000
  0.16270000000000001          1603184.1250000000
  0.16380000000000000          1392706.0000000000
  0.16490000000000005          1153254.7500000000
  0.16600000000000004          885196.68750000000
  0.16710000000000003          589354.25000000000
  0.16820000000000002          266933.31250000000
  0.16930000000000001         -80373.148437500000
  0.17040000000000000         -450431.59375000000
  0.17150000000000004         -840639.56250000000
  0.17260000000000003         -1247959.1250000000
  0.17370000000000002         -1668924.8750000000
  0.17480000000000001         -2099679.0000000000
  0.17590000000000000         -2536012.0000000000
  0.17700000000000005         -2973429.0000000000
  0.17810000000000004         -3407153.5000000000
  0.17920000000000003         -3832226.2500000000
  0.18030000000000002         -4243580.5000000000
  0.18140000000000001         -4636138.0000000000
  0.18250000000000000         -5004872.5000000000
  0.18360000000000004         -5344857.5000000000
  0.18470000000000003         -5651361.5000000000
  0.18580000000000002         -5919902.0000000000
  0.18690000000000001         -6146333.5000000000
  0.18800000000000000         -6326992.0000000000
  0.18910000000000005         -6458743.0000000000
  0.19020000000000004         -6539047.5000000000
  0.19130000000000003         -6565973.0000000000
  0.19240000000000002         -6538238.5000000000
  0.19350000000000001         -6455241.0000000000
  0.19460000000000005         -6317105.0000000000
  0.19570000000000004         -6124687.0000000000
  0.19680000000000003         -5879594.0000000000
  0.19790000000000002         -5584123.0000000000
  0.19900000000000001         -5241249.5000000000
  0.20010000000000000         -4854554.5000000000
  0.20120000000000005         -4428225.0000000000
  0.20230000000000004         -3966912.2500000000
  0.20340000000000003         -3475734.2500000000
  0.20450000000000002         -2960144.2500000000
  0.20560000000000000         -2425881.2500000000
  0.20670000000000005         -1878882.8750000000
  0.20780000000000004         -1325172.2500000000
  0.20890000000000003         -770751.18750000000
