 -0.12000000000000000          0.0000000000000000
 -0.11889999999999999          0.0000000000000000
 -0.11780000000000000          0.0000000000000000
 -0.11670000000000000          0.0000000000000000
 -0.11559999999999999          0.0000000000000000
 -0.11449999999999999          0.0000000000000000
 -0.11340000000000000          9.0235161024830436E-017
 -0.11230000000000000         -1.2181962500130468E-017
 -0.11119999999999999         -3.1552485504990788E-015
 -0.11009999999999999         -1.1832731788754612E-014
 -0.10900000000000000         -3.7379182797519184E-015
 -0.10790000000000000          8.8396304165347382E-014
 -0.10679999999999999          2.6446019311087048E-013
 -0.10569999999999999          1.5118073080306224E-013
 -0.10460000000000000         -1.0267597319243342E-012
 -0.10349999999999999         -3.2179625717581673E-012
 -0.10239999999999999         -3.2165442184763322E-012
 -0.10130000000000000          5.1814303715641101E-012
 -0.10020000000000000          2.3252469394385018E-011
  -9.9099999999999994E-002     3.3791712483744017E-011
  -9.7999999999999990E-002     2.8932951412603540E-013
  -9.6899999999999986E-002    -9.7346845862039218E-011
  -9.5799999999999996E-002    -1.9924548122495873E-010
  -9.4699999999999993E-002    -1.4625667343893342E-010
  -9.3599999999999989E-002     2.0161006197836089E-010
  -9.2499999999999999E-002     7.2454520161354613E-010
  -9.1399999999999995E-002     9.0740676084165732E-010
  -9.0299999999999991E-002     1.2742366883872253E-010
  -8.9200000000000002E-002    -1.6099149791058820E-009
  -8.8099999999999984E-002    -3.0750002544265180E-009
  -8.6999999999999994E-002    -2.2877078009742242E-009
  -8.5899999999999990E-002     1.6535542934900785E-009
  -8.4799999999999986E-002     6.6499330486631340E-009
  -8.3699999999999997E-002     7.9271318398352062E-009
  -8.2599999999999993E-002     1.7924840500784505E-009
  -8.1499999999999989E-002    -9.4427967667335142E-009
  -8.0399999999999999E-002    -1.6534807301126291E-008
  -7.9299999999999995E-002    -9.8842329876441989E-009
  -7.8199999999999992E-002     9.7794625730779557E-009
  -7.7100000000000002E-002     2.6819233056583814E-008
  -7.5999999999999984E-002     2.0854606930241329E-008
  -7.4899999999999994E-002    -1.2330073850819875E-008
  -7.3799999999999991E-002    -4.7679680648115754E-008
  -7.2699999999999987E-002    -4.4500211515696024E-008
  -7.1599999999999997E-002     1.5396908636944662E-008
  -7.0499999999999993E-002     9.5932719545999677E-008
  -6.9399999999999989E-002     1.1941659749936913E-007
  -6.8300000000000000E-002     2.9841750404108166E-008
  -6.7199999999999996E-002    -1.3895942174712508E-007
  -6.6099999999999992E-002    -2.5965354666368433E-007
  -6.5000000000000002E-002    -2.0049236582054781E-007
  -6.3899999999999985E-002     5.0030198650552692E-008
  -6.2799999999999995E-002     3.3512199593130826E-007
  -6.1699999999999991E-002     4.2786643916769403E-007
  -6.0599999999999994E-002     2.1962820540013420E-007
  -5.9499999999999990E-002    -1.6073147435231389E-007
  -5.8399999999999994E-002    -4.2602519556562044E-007
  -5.7299999999999990E-002    -3.7082256199025336E-007
  -5.6199999999999986E-002    -6.8709745448829431E-008
  -5.5099999999999996E-002     1.7404857999275777E-007
  -5.3999999999999992E-002     1.0346509782258864E-007
  -5.2899999999999989E-002    -2.0525283161993954E-007
  -5.1799999999999985E-002    -3.6440232520366428E-007
  -5.0699999999999995E-002    -2.6017106691251827E-008
  -4.9599999999999991E-002     7.2182422172778077E-007
  -4.8499999999999988E-002     1.3084373904349480E-006
  -4.7399999999999998E-002     1.1039770697608720E-006
  -4.6299999999999994E-002    -7.2398149696074077E-009
  -4.5199999999999990E-002    -1.4204601939126529E-006
  -4.4099999999999986E-002    -2.2120141238702322E-006
  -4.2999999999999997E-002    -1.8484860220271365E-006
  -4.1899999999999993E-002    -5.9378658079400493E-007
  -4.0799999999999989E-002     7.5090810014412830E-007
  -3.9699999999999985E-002     1.5326718312279185E-006
  -3.8599999999999995E-002     1.7151897964141546E-006
  -3.7499999999999992E-002     1.6999711078827997E-006
  -3.6399999999999988E-002     1.7178277857970374E-006
  -3.5299999999999984E-002     1.4573478210882227E-006
  -3.4199999999999994E-002     3.7286503129537024E-007
  -3.3099999999999991E-002    -1.5965971442710640E-006
  -3.1999999999999987E-002    -3.6526957956087578E-006
  -3.0899999999999997E-002    -4.5887568376207363E-006
  -2.9799999999999993E-002    -3.7315689951363027E-006
  -2.8699999999999989E-002    -1.4936327943366443E-006
  -2.7599999999999986E-002     1.0179722949029370E-006
  -2.6499999999999996E-002     2.9599952995341136E-006
  -2.5399999999999992E-002     4.3048494262625906E-006
  -2.4299999999999988E-002     5.4133474804993460E-006
  -2.3199999999999985E-002     6.1116779761515300E-006
  -2.2099999999999995E-002     5.3776284403292983E-006
  -2.0999999999999991E-002     2.1929211015964056E-006
  -1.9899999999999987E-002    -3.1441124974662370E-006
  -1.8799999999999983E-002    -8.6349409684777449E-006
  -1.7699999999999994E-002    -1.1786931281677663E-005
  -1.6599999999999990E-002    -1.1510716831254902E-005
  -1.5499999999999986E-002    -8.9684835984387459E-006
  -1.4399999999999996E-002    -6.4857731558744784E-006
  -1.3299999999999992E-002    -5.4923448260532349E-006
  -1.2199999999999989E-002    -5.4911861298026908E-006
  -1.1099999999999985E-002    -5.1196602726122983E-006
  -9.9999999999999950E-003    -4.2570213736327256E-006
  -8.8999999999999913E-003    -4.9414352361059293E-006
  -7.7999999999999875E-003    -9.9116023193356043E-006
  -6.6999999999999837E-003    -1.9985509425170449E-005
  -5.5999999999999939E-003    -3.2854117307581530E-005
  -4.4999999999999901E-003    -4.4693555537381858E-005
  -3.3999999999999864E-003    -5.3287443734011727E-005
  -2.2999999999999826E-003    -5.9767975471920055E-005
  -1.1999999999999927E-003    -6.7319946538198932E-005
  -9.9999999999988987E-005    -7.8151249908850983E-005
   1.0000000000000148E-003    -9.1783957032030934E-005
   2.1000000000000185E-003    -1.0641432163539483E-004
   3.2000000000000084E-003    -1.2194420560264287E-004
   4.3000000000000121E-003    -1.4147360343487434E-004
   5.4000000000000159E-003    -1.6950893041213735E-004
   6.5000000000000058E-003    -2.0850080181846525E-004
   7.6000000000000234E-003    -2.5715812807905171E-004
   8.7000000000000133E-003    -3.1231014872904215E-004
   9.8000000000000032E-003    -3.7249372689988496E-004
   1.0900000000000021E-002    -4.3963317875754868E-004
   1.2000000000000011E-002    -5.1713403081526704E-004
   1.3100000000000001E-002    -6.0649676015606764E-004
   1.4200000000000018E-002    -7.0623640203855669E-004
   1.5300000000000008E-002    -8.1453501479708534E-004
   1.6400000000000026E-002    -9.3298032879839034E-004
   1.7500000000000016E-002    -1.0672727366910495E-003
   1.8600000000000005E-002    -1.2236892944203104E-003
   1.9700000000000023E-002    -1.4045651769266998E-003
   2.0800000000000013E-002    -1.6073632286863222E-003
   2.1900000000000003E-002    -1.8284218385817548E-003
   2.3000000000000020E-002    -2.0675749983640728E-003
   2.4100000000000010E-002    -2.3286452051254629E-003
   2.5200000000000000E-002    -2.6149458717557635E-003
   2.6300000000000018E-002    -2.9243710450831250E-003
   2.7400000000000008E-002    -3.2495420891795130E-003
   2.8500000000000025E-002    -3.5835369490090983E-003
   2.9600000000000015E-002    -3.9256825111810773E-003
   3.0700000000000005E-002    -4.2810863815252844E-003
   3.1800000000000023E-002    -4.6534491702919546E-003
   3.2900000000000013E-002    -5.0375103019183725E-003
   3.4000000000000002E-002    -5.4183271713561182E-003
   3.5100000000000020E-002    -5.7781944051391769E-003
   3.6200000000000010E-002    -6.1044325120754445E-003
   3.7300000000000028E-002    -6.3901455141611805E-003
   3.8400000000000017E-002    -6.6271065734335166E-003
   3.9500000000000007E-002    -6.7981197498747526E-003
   4.0600000000000025E-002    -6.8768481723973348E-003
   4.1700000000000015E-002    -6.8355971015999217E-003
   4.2800000000000005E-002    -6.6531654447326760E-003
   4.3900000000000022E-002    -6.3146171160052000E-003
   4.5000000000000012E-002    -5.8027398772547353E-003
   4.6100000000000002E-002    -5.0893090665349834E-003
   4.7200000000000020E-002    -4.1351383551964200E-003
   4.8300000000000010E-002    -2.8992209117867929E-003
   4.9400000000000027E-002    -1.3475362211473252E-003
   5.0500000000000017E-002     5.4742541396928391E-004
   5.1600000000000007E-002     2.8152687009419322E-003
   5.2700000000000025E-002     5.4947244934734968E-003
   5.3800000000000014E-002     8.6303399875759697E-003
   5.4900000000000004E-002     1.2260918505490066E-002
   5.6000000000000022E-002     1.6410429030657380E-002
   5.7100000000000012E-002     2.1090226247907625E-002
   5.8200000000000002E-002     2.6311179623009145E-002
   5.9300000000000019E-002     3.2092753797771399E-002
   6.0400000000000009E-002     3.8458831608297835E-002
   6.1500000000000027E-002     4.5423727482560294E-002
   6.2600000000000017E-002     5.2981529384855112E-002
   6.3700000000000007E-002     6.1109304428104957E-002
   6.4800000000000024E-002     6.9779783487325095E-002
   6.5900000000000014E-002     7.8968644142156860E-002
   6.7000000000000004E-002     8.8647253811366275E-002
   6.8100000000000022E-002     9.8766520619400194E-002
   6.9200000000000012E-002    0.10924743860960885
   7.0300000000000029E-002    0.11998885124922778
   7.1400000000000019E-002    0.13088618218899858
   7.2500000000000009E-002    0.14184249937535523
   7.3600000000000027E-002    0.15276044607163775
   7.4700000000000016E-002    0.16352312266828037
   7.5800000000000006E-002    0.17398321628572069
   7.6900000000000024E-002    0.18397170305253691
   7.8000000000000014E-002    0.19331966340543555
   7.9100000000000004E-002    0.20187161862851996
   8.0200000000000021E-002    0.20947748422624574
   8.1300000000000011E-002    0.21597315371038500
   8.2400000000000029E-002    0.22117158770563256
   8.3500000000000019E-002    0.22487534582616989
   8.4600000000000009E-002    0.22690059244634850
   8.5700000000000026E-002    0.22709022462370165
   8.6800000000000016E-002    0.22530387341978325
   8.7900000000000006E-002    0.22139585018160107
   8.9000000000000024E-002    0.21520626544954508
   9.0100000000000013E-002    0.20657776296140823
   9.1200000000000003E-002    0.19538232684137419
   9.2300000000000021E-002    0.18153382837774251
   9.3400000000000011E-002    0.16497240960599746
   9.4500000000000028E-002    0.14563578367234878
   9.5600000000000018E-002    0.12344837933780184
   9.6700000000000008E-002     9.8339997231972454E-002
   9.7800000000000026E-002     7.0275656878958023E-002
   9.8900000000000016E-002     3.9267096668489029E-002
  0.10000000000000001          5.3535322658760818E-003
  0.10110000000000002         -3.1429797410963807E-002
  0.10220000000000001         -7.1064680814745318E-002
  0.10330000000000003        -0.11353111267090440
  0.10440000000000002        -0.15877611935139693
  0.10550000000000001        -0.20670297741891366
  0.10660000000000003        -0.25719329714776940
  0.10770000000000002        -0.31014049053194465
  0.10880000000000001        -0.36546030640604926
  0.10990000000000003        -0.42306789755824559
  0.11100000000000002        -0.48284149169925733
  0.11210000000000001        -0.54460930824284193
  0.11320000000000002        -0.60817372798924663
  0.11430000000000001        -0.67334675788884957
  0.11540000000000003        -0.73995953798300229
  0.11650000000000002        -0.80783146619803525
  0.11760000000000001        -0.87672466039664987
  0.11870000000000003        -0.94632524251945893
  0.11980000000000002         -1.0162652730942638
  0.12090000000000001         -1.0861601829529737
  0.12200000000000003         -1.1556195020676652
  0.12310000000000001         -1.2242145538331133
  0.12420000000000003         -1.2914322614670917
  0.12530000000000002         -1.3566590547562822
  0.12640000000000001         -1.4192063808442399
  0.12750000000000003         -1.4783519506455760
  0.12860000000000002         -1.5333515405656253
  0.12970000000000001         -1.5834114551545584
  0.13080000000000003         -1.6276475191117772
  0.13190000000000002         -1.6650723218919323
  0.13300000000000001         -1.6946352720262130
  0.13410000000000000         -1.7152843475343331
  0.13520000000000004         -1.7259935140611293
  0.13630000000000003         -1.7257379293443333
  0.13740000000000002         -1.7134628295899996
  0.13850000000000001         -1.6880906820298787
  0.13960000000000000         -1.6485787630082698
  0.14070000000000005         -1.5939860343934589
  0.14180000000000004         -1.5235096216203212
  0.14290000000000003         -1.4364752769471580
  0.14400000000000002         -1.3323056697846742
  0.14510000000000001         -1.2105365991593595
  0.14620000000000000         -1.0708861351014258
  0.14730000000000004        -0.91331905126581114
  0.14840000000000003        -0.73807519674309163
  0.14950000000000002        -0.54564666748053281
  0.15060000000000001        -0.33673629164700386
  0.15170000000000000        -0.11227140575650089
  0.15280000000000005         0.12654228508471754
  0.15390000000000004         0.37817624211312828
  0.15500000000000003         0.64077568054202994
  0.15610000000000002         0.91222387552267514
  0.15720000000000001          1.1902097463608650
  0.15830000000000000          1.4722425937653700
  0.15940000000000004          1.7556269168855128
  0.16050000000000003          2.0374464988710121
  0.16160000000000002          2.3146102428438158
  0.16270000000000001          2.5839412212373953
  0.16380000000000000          2.8422672748568041
  0.16490000000000005          3.0864624977114414
  0.16600000000000004          3.3134458065035775
  0.16710000000000003          3.5201880931857268
  0.16820000000000002          3.7037701606753690
  0.16930000000000001          3.8614900112155466
  0.17040000000000000          3.9909543991092371
  0.17150000000000004          4.0901150703433791
  0.17260000000000003          4.1572575569156536
  0.17370000000000002          4.1909952163700046
  0.17480000000000001          4.1903071403507202
  0.17590000000000000          4.1546154022220572
  0.17700000000000005          4.0838456153873368
  0.17810000000000004          3.9784214496616217
  0.17920000000000003          3.8392131328586330
  0.18030000000000002          3.6674926280978779
  0.18140000000000001          3.4649279117587506
  0.18250000000000000          3.2336077690127598
  0.18360000000000004          2.9760463237765324
  0.18470000000000003          2.6951260566714064
  0.18580000000000002          2.3940067291262146
  0.18690000000000001          2.0760521888735015
  0.18800000000000000          1.7447932958604724
  0.18910000000000005          1.4039131402970877
  0.19020000000000004          1.0572117567063586
  0.19130000000000003         0.70852392911919959
  0.19240000000000002         0.36162024736410225
  0.19350000000000001          2.0132705569294085E-002
  0.19460000000000005        -0.31247523427009971
  0.19570000000000004        -0.63292390108111896
  0.19680000000000003        -0.93815255165106337
  0.19790000000000002         -1.2253768444062176
  0.19900000000000001         -1.4921579360963066
  0.20010000000000000         -1.7364413738252122
  0.20120000000000005         -1.9565417766572650
  0.20230000000000004         -2.1511209011079679
  0.20340000000000003         -2.3192024230959003
  0.20450000000000002         -2.4602010250093671
  0.20560000000000000         -2.5739331245424606
  0.20670000000000005         -2.6605966091158346
  0.20780000000000004         -2.7207157611849335
  0.20890000000000003         -2.7550940513613300
