 -0.12000000000000000          0.0000000000000000
 -0.11889999999999999          0.0000000000000000
 -0.11780000000000000          0.0000000000000000
 -0.11670000000000000          0.0000000000000000
 -0.11559999999999999          0.0000000000000000
 -0.11449999999999999          0.0000000000000000
 -0.11340000000000000          0.0000000000000000
 -0.11230000000000000          0.0000000000000000
 -0.11119999999999999          0.0000000000000000
 -0.11009999999999999          0.0000000000000000
 -0.10900000000000000          0.0000000000000000
 -0.10790000000000000          1.1656444428463660E-032
 -0.10679999999999999         -5.4326447083563200E-032
 -0.10569999999999999          1.5740198495928660E-030
 -0.10460000000000000          1.1202528119494623E-029
 -0.10349999999999999          9.5959562922596899E-031
 -0.10239999999999999         -8.5128330398414022E-029
 -0.10130000000000000          3.5792916904300960E-028
 -0.10020000000000000          2.8624582540132335E-027
  -9.9099999999999994E-002     1.3290501656616158E-027
  -9.7999999999999990E-002    -3.1703056370788946E-026
  -9.6899999999999986E-002    -8.1823075139021406E-026
  -9.5799999999999996E-002     1.2245892122959692E-025
  -9.4699999999999993E-002     9.5857634176264713E-025
  -9.3599999999999989E-002     1.1120104780814260E-024
  -9.2499999999999999E-002    -4.4783523148870109E-024
  -9.1399999999999995E-002    -1.7060989831193375E-023
  -9.0299999999999991E-002    -8.8850563380573235E-024
  -8.9200000000000002E-002     8.0341803949498102E-023
  -8.8099999999999984E-002     2.2013447550118214E-022
  -8.6999999999999994E-002     5.0266759616985664E-023
  -8.5899999999999990E-002    -9.7713829960478724E-022
  -8.4799999999999986E-002    -2.2810004203677327E-021
  -8.3699999999999997E-002    -3.7433093307774767E-022
  -8.2599999999999993E-002     8.9841782695874923E-021
  -8.1499999999999989E-002     1.9943243789296803E-020
  -8.0399999999999999E-002     5.1208372771103286E-021
  -7.9299999999999995E-002    -6.5451590084098901E-020
  -7.8199999999999992E-002    -1.4999322916091164E-019
  -7.7100000000000002E-002    -6.6483930875610687E-020
  -7.5999999999999984E-002     3.8354268618218954E-019
  -7.4899999999999994E-002     9.7424370949033507E-019
  -7.3799999999999991E-002     6.6000446392512856E-019
  -7.2699999999999987E-002    -1.7825678094020274E-018
  -7.1599999999999997E-002    -5.4487536729919382E-018
  -7.0499999999999993E-002    -5.1099677910504323E-018
  -6.9399999999999989E-002     6.1167305553596411E-018
  -6.8300000000000000E-002     2.6043945367993362E-017
  -6.7199999999999996E-002     3.1964624605600891E-017
  -6.6099999999999992E-002    -1.0849526734552738E-017
  -6.5000000000000002E-002    -1.0482860564629010E-016
  -6.3899999999999985E-002    -1.6537394499832115E-016
  -6.2799999999999995E-002    -3.7230466311280816E-017
  -6.1699999999999991E-002     3.4395699823215869E-016
  -6.0599999999999994E-002     7.1574554034740316E-016
  -5.9499999999999990E-002     4.6874342726887911E-016
  -5.8399999999999994E-002    -8.4206954594162695E-016
  -5.7299999999999990E-002    -2.5901128267722447E-015
  -5.6199999999999986E-002    -2.6970564538354941E-015
  -5.5099999999999996E-002     1.0082094469522824E-015
  -5.3999999999999992E-002     7.7019435344412648E-015
  -5.2899999999999989E-002     1.1333083146795094E-014
  -5.1799999999999985E-002     3.4072700749439386E-015
  -5.0699999999999995E-002    -1.7808310368342371E-014
  -4.9599999999999991E-002    -3.7832587675709975E-014
  -4.8499999999999988E-002    -2.8977071664468973E-014
  -4.7399999999999998E-002     2.6039939180085535E-014
  -4.6299999999999994E-002     1.0158382110752456E-013
  -4.5199999999999990E-002     1.2193136853921177E-013
  -4.4099999999999986E-002     1.1462912968818444E-014
  -4.2999999999999997E-002    -2.1120397911047334E-013
  -4.1899999999999993E-002    -3.7533100542483377E-013
  -4.0799999999999989E-002    -2.3767400265765903E-013
  -3.9699999999999985E-002     2.8651999392850791E-013
  -3.8599999999999995E-002     8.9948193207969873E-013
  -3.7499999999999992E-002     9.7392666847939680E-013
  -3.6399999999999988E-002     2.5869134986271705E-014
  -3.5299999999999984E-002    -1.6360121807626471E-012
  -3.4199999999999994E-002    -2.7000448318131864E-012
  -3.3099999999999991E-002    -1.6142608083580257E-012
  -3.1999999999999987E-002     1.8842282335090887E-012
  -3.0899999999999997E-002     5.6620016834763032E-012
  -2.9799999999999993E-002     5.9687784229045526E-012
  -2.8699999999999989E-002     4.0486448286795873E-013
  -2.7599999999999986E-002    -8.7949968488598707E-012
  -2.6499999999999996E-002    -1.4435574263726991E-011
  -2.5399999999999992E-002    -8.9655895554874299E-012
  -2.4299999999999988E-002     8.0946803079906537E-012
  -2.3199999999999985E-002     2.6025348542901838E-011
  -2.2099999999999995E-002     2.7924829115733019E-011
  -2.0999999999999991E-002     4.3128014180771057E-012
  -1.9899999999999987E-002    -3.4152240063756167E-011
  -1.8799999999999983E-002    -5.7817882426203226E-011
  -1.7699999999999994E-002    -3.8124555595819842E-011
  -1.6599999999999990E-002     2.4705244794365200E-011
  -1.5499999999999986E-002     8.9961336990906915E-011
  -1.4399999999999996E-002     9.8525833325258105E-011
  -1.3299999999999992E-002     2.1079893039455122E-011
  -1.2199999999999989E-002    -1.0327812216548438E-010
  -1.1099999999999985E-002    -1.7813665820209934E-010
  -9.9999999999999950E-003    -1.1838091618088242E-010
  -8.8999999999999913E-003     6.7419271554403082E-011
  -7.7999999999999875E-003     2.5290669558586387E-010
  -6.6999999999999837E-003     2.7037874716917543E-010
  -5.5999999999999939E-003     5.0517007244010870E-011
  -4.4999999999999901E-003    -2.8281996189427616E-010
  -3.3999999999999864E-003    -4.6422654609301617E-010
  -2.2999999999999826E-003    -2.8348837166625174E-010
  -1.1999999999999927E-003     2.0730632488419332E-010
  -9.9999999999988987E-005     6.6134842047205211E-010
   1.0000000000000148E-003     6.6078026383920019E-010
   2.1000000000000185E-003     6.9933510371544827E-011
   3.2000000000000084E-003    -7.6146150496114728E-010
   4.3000000000000121E-003    -1.1691432266758284E-009
   5.4000000000000159E-003    -6.7173927531527511E-010
   6.5000000000000058E-003     5.5560178680025274E-010
   7.6000000000000234E-003     1.6544139391783119E-009
   8.7000000000000133E-003     1.6444434702833632E-009
   9.8000000000000032E-003     2.3714272212593812E-010
   1.0900000000000021E-002    -1.7393295692613719E-009
   1.2000000000000011E-002    -2.7663420443246878E-009
   1.3100000000000001E-002    -1.7539359964402479E-009
   1.4200000000000018E-002     9.3742014151132480E-010
   1.5300000000000008E-002     3.4638445445267507E-009
   1.6400000000000026E-002     3.7074914249757285E-009
   1.7500000000000016E-002     9.8499741696400633E-010
   1.8600000000000005E-002    -3.0747386858820391E-009
   1.9700000000000023E-002    -5.4007465166705515E-009
   2.0800000000000013E-002    -3.7392067220309855E-009
   2.1900000000000003E-002     1.3017248390312375E-009
   2.3000000000000020E-002     6.1804503737050709E-009
   2.4100000000000010E-002     6.7910610468402410E-009
   2.5200000000000000E-002     1.7886122583021802E-009
   2.6300000000000018E-002    -5.7211355652952989E-009
   2.7400000000000008E-002    -9.8796260061817520E-009
   2.8500000000000025E-002    -6.4339809036084716E-009
   2.9600000000000015E-002     3.3466474036458749E-009
   3.0700000000000005E-002     1.2564218998534216E-008
   3.1800000000000023E-002     1.3270128107478740E-008
   3.2900000000000013E-002     2.8815159147654867E-009
   3.4000000000000002E-002    -1.2514126623841548E-008
   3.5100000000000020E-002    -2.1334411570705925E-008
   3.6200000000000010E-002    -1.4851023522055584E-008
   3.7300000000000028E-002     5.1006350254567678E-009
   3.8400000000000017E-002     2.5462099983997177E-008
   3.9500000000000007E-002     3.0223652913718979E-008
   4.0600000000000025E-002     1.2614643551955851E-008
   4.1700000000000015E-002    -1.7863337475887420E-008
   4.2800000000000005E-002    -4.0073043550137299E-008
   4.3900000000000022E-002    -3.5817990351461049E-008
   4.5000000000000012E-002    -4.4207362215331614E-009
   4.6100000000000002E-002     3.4192687792256038E-008
   4.7200000000000020E-002     5.2016059015613791E-008
   4.8300000000000010E-002     3.3453996906018801E-008
   4.9400000000000027E-002    -1.1214273953896736E-008
   5.0500000000000017E-002    -5.0842899668168684E-008
   5.1600000000000007E-002    -5.5223878803190019E-008
   5.2700000000000025E-002    -1.8531036261038025E-008
   5.3800000000000014E-002     3.3864754556134358E-008
   5.4900000000000004E-002     6.2409050372025376E-008
   5.6000000000000022E-002     4.3263128191028954E-008
   5.7100000000000012E-002    -1.1372201846882035E-008
   5.8200000000000002E-002    -5.9792469642161450E-008
   5.9300000000000019E-002    -6.1764744430092833E-008
   6.0400000000000009E-002    -1.1484034168063317E-008
   6.1500000000000027E-002     5.4103413305028880E-008
   6.2600000000000017E-002     8.1193526568767993E-008
   6.3700000000000007E-002     4.1907480152758581E-008
   6.4800000000000024E-002    -3.9346254254724045E-008
   6.5900000000000014E-002    -9.9791300556262286E-008
   6.7000000000000004E-002    -8.5971898045045236E-008
   6.8100000000000022E-002     2.5079477383727067E-010
   6.9200000000000012E-002     9.6188685461129353E-008
   7.0300000000000029E-002     1.2348546363227797E-007
   7.1400000000000019E-002     5.2863349253584602E-008
   7.2500000000000009E-002    -6.3890048807024868E-008
   7.3600000000000027E-002    -1.2740332522298559E-007
   7.4700000000000016E-002    -7.1803270884629455E-008
   7.5800000000000006E-002     6.8568724032047612E-008
   7.6900000000000024E-002     1.6816190395729791E-007
   7.8000000000000014E-002     1.0348330903298120E-007
   7.9100000000000004E-002    -1.3127177567184845E-007
   8.0200000000000021E-002    -3.8082623632362811E-007
   8.1300000000000011E-002    -4.1288899410574231E-007
   8.2400000000000029E-002    -9.1769457810642052E-008
   8.3500000000000019E-002     4.7804826408537338E-007
   8.4600000000000009E-002     9.6039639174705371E-007
   8.5700000000000026E-002     9.7651764008332975E-007
   8.6800000000000016E-002     3.6988532770010352E-007
   8.7900000000000006E-002    -6.3505348180115107E-007
   8.9000000000000024E-002    -1.5143491509661544E-006
   9.0100000000000013E-002    -1.7450927316531306E-006
   9.1200000000000003E-002    -1.1421190038163331E-006
   9.2300000000000021E-002     6.2597810268627541E-010
   9.3400000000000011E-002     1.0808547585838824E-006
   9.4500000000000028E-002     1.5754013702462544E-006
   9.5600000000000018E-002     1.3847650279785739E-006
   9.6700000000000008E-002     8.8460984670746257E-007
   9.7800000000000026E-002     6.2716264892515028E-007
   9.8900000000000016E-002     8.8750175564200617E-007
  0.10000000000000001          1.3812078805131023E-006
  0.10110000000000002          1.3839493249179213E-006
  0.10220000000000001          2.1118593451774359E-007
  0.10330000000000003         -2.2485712634079391E-006
  0.10440000000000002         -5.3180133363639470E-006
  0.10550000000000001         -7.8072944234008901E-006
  0.10660000000000003         -8.6234276750474237E-006
  0.10770000000000002         -7.3145670285157394E-006
  0.10880000000000001         -4.1815615077211987E-006
  0.10990000000000003          1.1953721923418925E-007
  0.11100000000000002          5.2054288062208798E-006
  0.11210000000000001          1.1377560440450907E-005
  0.11320000000000002          1.9517212422215380E-005
  0.11430000000000001          3.0527731723850593E-005
  0.11540000000000003          4.4719476136378944E-005
  0.11650000000000002          6.1595914303325117E-005
  0.11760000000000001          8.0243953561875969E-005
  0.11870000000000003          1.0013110295403749E-004
  0.11980000000000002          1.2184061051812023E-004
  0.12090000000000001          1.4731423289049417E-004
  0.12200000000000003          1.7948553431779146E-004
  0.12310000000000001          2.2155462647788227E-004
  0.12420000000000003          2.7633763966150582E-004
  0.12530000000000002          3.4602373489178717E-004
  0.12640000000000001          4.3239982915110886E-004
  0.12750000000000003          5.3736212430521846E-004
  0.12860000000000002          6.6346814855933189E-004
  0.12970000000000001          8.1437948392704129E-004
  0.13080000000000003          9.9516985937952995E-004
  0.13190000000000002          1.2125009670853615E-003
  0.13300000000000001          1.4746150700375438E-003
  0.13410000000000000          1.7910791793838143E-003
  0.13520000000000004          2.1723271347582340E-003
  0.13630000000000003          2.6292754337191582E-003
  0.13740000000000002          3.1734067015349865E-003
  0.13850000000000001          3.8175422232598066E-003
  0.13960000000000000          4.5770904980599880E-003
  0.14070000000000005          5.4711224511265755E-003
  0.14180000000000004          6.5225437283515930E-003
  0.14290000000000003          7.7571347355842590E-003
  0.14400000000000002          9.2019950971007347E-003
  0.14510000000000001          1.0884532704949379E-002
  0.14620000000000000          1.2832961976528168E-002
  0.14730000000000004          1.5078410506248474E-002
  0.14840000000000003          1.7657570540904999E-002
  0.14950000000000002          2.0614212378859520E-002
  0.15060000000000001          2.3998418822884560E-002
  0.15170000000000000          2.7863703668117523E-002
  0.15280000000000005          3.2263617962598801E-002
  0.15390000000000004          3.7249851971864700E-002
  0.15500000000000003          4.2872961610555649E-002
  0.15610000000000002          4.9185205250978470E-002
  0.15720000000000001          5.6243363767862320E-002
  0.15830000000000000          6.4109191298484802E-002
  0.15940000000000004          7.2846770286560059E-002
  0.16050000000000003          8.2517832517623901E-002
  0.16160000000000002          9.3177437782287598E-002
  0.16270000000000001         0.10487243533134460
  0.16380000000000000         0.11764253675937653
  0.16490000000000005         0.13152255117893219
  0.16600000000000004         0.14654301106929779
  0.16710000000000003         0.16272681951522827
  0.16820000000000002         0.18008324503898621
  0.16930000000000001         0.19860175251960754
  0.17040000000000000         0.21824783086776733
  0.17150000000000004         0.23896285891532898
  0.17260000000000003         0.26066708564758301
  0.17370000000000002         0.28326150774955750
  0.17480000000000001         0.30662694573402405
  0.17590000000000000         0.33061975240707397
  0.17700000000000005         0.35506525635719299
  0.17810000000000004         0.37975221872329712
  0.17920000000000003         0.40443095564842224
  0.18030000000000002         0.42881697416305542
  0.18140000000000001         0.45259636640548706
  0.18250000000000000         0.47542929649353027
  0.18360000000000004         0.49695283174514771
  0.18470000000000003         0.51678037643432617
  0.18580000000000002         0.53450089693069458
  0.18690000000000001         0.54968088865280151
  0.18800000000000000         0.56186974048614502
  0.18910000000000005         0.57060784101486206
  0.19020000000000004         0.57543498277664185
  0.19130000000000003         0.57589960098266602
  0.19240000000000002         0.57156640291213989
  0.19350000000000001         0.56202298402786255
  0.19460000000000005         0.54688686132431030
  0.19570000000000004         0.52581340074539185
  0.19680000000000003         0.49850633740425110
  0.19790000000000002         0.46472910046577454
  0.19900000000000001         0.42431282997131348
  0.20010000000000000         0.37716466188430786
  0.20120000000000005         0.32327601313591003
  0.20230000000000004         0.26272791624069214
  0.20340000000000003         0.19569514691829681
  0.20450000000000002         0.12245398759841919
  0.20560000000000000          4.3387562036514282E-002
  0.20670000000000005         -4.1017152369022369E-002
  0.20780000000000004        -0.13017296791076660
  0.20890000000000003        -0.22339403629302979
