 -0.12000000000000000          0.0000000000000000
 -0.11889999999999999          0.0000000000000000
 -0.11780000000000000          0.0000000000000000
 -0.11670000000000000          0.0000000000000000
 -0.11559999999999999          0.0000000000000000
 -0.11449999999999999          0.0000000000000000
 -0.11340000000000000          0.0000000000000000
 -0.11230000000000000          0.0000000000000000
 -0.11119999999999999          0.0000000000000000
 -0.11009999999999999          0.0000000000000000
 -0.10900000000000000          3.5142196090041974E-041
 -0.10790000000000000          1.6554548707804442E-028
 -0.10679999999999999          1.0739828927202467E-027
 -0.10569999999999999         -9.1463125653612248E-028
 -0.10460000000000000         -2.8355395696983571E-026
 -0.10349999999999999         -8.1891089740098529E-026
 -0.10239999999999999          1.3109709605335773E-025
 -0.10130000000000000          1.3416846682305271E-024
 -0.10020000000000000          2.5159073797011193E-024
  -9.9099999999999994E-002    -5.1420194167308005E-024
  -9.7999999999999990E-002    -3.5118118503610322E-023
  -9.6899999999999986E-002    -5.9137557294136802E-023
  -9.5799999999999996E-002     7.4425416580153599E-023
  -9.4699999999999993E-002     5.5568185103453640E-022
  -9.3599999999999989E-002     1.0110401839186503E-021
  -9.2499999999999999E-002    -3.4684078398397934E-022
  -9.1399999999999995E-002    -5.7427991456703760E-021
  -9.0299999999999991E-002    -1.2192562257464089E-020
  -8.9200000000000002E-002    -4.0245786079161592E-021
  -8.8099999999999984E-002     4.0278325619699142E-020
  -8.6999999999999994E-002     1.0686257153160070E-019
  -8.5899999999999990E-002     8.9597496227650667E-020
  -8.4799999999999986E-002    -1.8093429478970364E-019
  -8.3699999999999997E-002    -6.9557834844483308E-019
  -8.2599999999999993E-002    -8.9483612844371309E-019
  -8.1499999999999989E-002     3.0127037187981203E-019
  -8.0399999999999999E-002     3.3432471078234200E-018
  -7.9299999999999995E-002     5.9908158817444205E-018
  -7.8199999999999992E-002     2.6764324142144528E-018
  -7.7100000000000002E-002    -1.1127078917289172E-017
  -7.5999999999999984E-002    -2.9285105360128602E-017
  -7.4899999999999994E-002    -2.8708517459781952E-017
  -7.3799999999999991E-002     1.8104895804927414E-017
  -7.2699999999999987E-002     1.0554084785835852E-016
  -7.1599999999999997E-002     1.5811215948790794E-016
  -7.0499999999999993E-002     5.2381060088643998E-017
  -6.9399999999999989E-002    -2.6221858351991941E-016
  -6.8300000000000000E-002    -6.0290778158104102E-016
  -6.7199999999999996E-002    -5.3843332770186068E-016
  -6.6099999999999992E-002     2.9877154920496280E-016
  -6.5000000000000002E-002     1.6545730892218737E-015
  -6.3899999999999985E-002     2.3493415939324142E-015
  -6.2799999999999995E-002     8.7799295438798342E-016
  -6.1699999999999991E-002    -3.0117389346194737E-015
  -6.0599999999999994E-002    -6.8826869151090375E-015
  -5.9499999999999990E-002    -6.2285915560960680E-015
  -5.8399999999999994E-002     1.8955646565079573E-015
  -5.7299999999999990E-002     1.4210540465977959E-014
  -5.6199999999999986E-002     2.0276469508948379E-014
  -5.5099999999999996E-002     9.1345286640628419E-015
  -5.3999999999999992E-002    -1.8809188215741850E-014
  -5.2899999999999989E-002    -4.4731877707131601E-014
  -5.1799999999999985E-002    -4.0369112539549953E-014
  -5.0699999999999995E-002     6.9812942556705581E-015
  -4.9599999999999991E-002     7.1692177476716926E-014
  -4.8499999999999988E-002     9.6019194114812429E-014
  -4.7399999999999998E-002     3.5000495747101772E-014
  -4.6299999999999994E-002    -8.8219857038044650E-014
  -4.5199999999999990E-002    -1.7238860621110362E-013
  -4.4099999999999986E-002    -1.0896971123833306E-013
  -4.2999999999999997E-002     1.0198137771539451E-013
  -4.1899999999999993E-002     2.9609366174185973E-013
  -4.0799999999999989E-002     2.4272882423628596E-013
  -3.9699999999999985E-002    -1.3162601976253404E-013
  -3.8599999999999995E-002    -5.7661687924423134E-013
  -3.7499999999999992E-002    -6.2104331009426337E-013
  -3.6399999999999988E-002     2.7860621253703674E-014
  -3.5299999999999984E-002     1.0698609966691590E-012
  -3.4199999999999994E-002     1.6169520149904113E-012
  -3.3099999999999991E-002     8.1762618593984956E-013
  -3.1999999999999987E-002    -1.2541559587729534E-012
  -3.0899999999999997E-002    -3.2315075094989447E-012
  -2.9799999999999993E-002    -3.2055376148611260E-012
  -2.8699999999999989E-002    -3.1888323904136302E-013
  -2.7599999999999986E-002     4.0156875220910865E-012
  -2.6499999999999996E-002     6.5802775554842940E-012
  -2.5399999999999992E-002     4.6486018159812001E-012
  -2.4299999999999988E-002    -1.4402058105135437E-012
  -2.3199999999999985E-002    -7.7408270765524118E-012
  -2.2099999999999995E-002    -9.2723571876169619E-012
  -2.0999999999999991E-002    -4.1488297172756223E-012
  -1.9899999999999987E-002     4.1705618993033740E-012
  -1.8799999999999983E-002     9.0589116069630343E-012
  -1.7699999999999994E-002     6.2961393910985175E-012
  -1.6599999999999990E-002    -1.5078610018581837E-012
  -1.5499999999999986E-002    -6.2137473985646764E-012
  -1.4399999999999996E-002    -1.3305852730391891E-012
  -1.3299999999999992E-002     1.0511081588448397E-011
  -1.2199999999999989E-002     1.7201799012987479E-011
  -1.1099999999999985E-002     6.4425040822969354E-012
  -9.9999999999999950E-003    -2.1445695913558926E-011
  -8.8999999999999913E-003    -4.8480653519476500E-011
  -7.7999999999999875E-003    -4.8952630143923064E-011
  -6.6999999999999837E-003    -9.7311533830902021E-012
  -5.5999999999999939E-003     5.4186450465514587E-011
  -4.4999999999999901E-003     1.0350190149388457E-010
  -3.3999999999999864E-003     9.9062272274067437E-011
  -2.2999999999999826E-003     3.1187958465782199E-011
  -1.1999999999999927E-003    -6.8466808611512296E-011
  -9.9999999999988987E-005    -1.4395688807678451E-010
   1.0000000000000148E-003    -1.5086308591260588E-010
   2.1000000000000185E-003    -8.5275418670856123E-011
   3.2000000000000084E-003     1.5701304839652510E-011
   4.3000000000000121E-003     1.0193493271694628E-010
   5.4000000000000159E-003     1.4422038563389358E-010
   6.5000000000000058E-003     1.4694176431184187E-010
   7.6000000000000234E-003     1.3021919653686691E-010
   8.7000000000000133E-003     9.9149757848389443E-011
   9.8000000000000032E-003     3.0922174543117733E-011
   1.0900000000000021E-002    -1.0257946575500540E-010
   1.2000000000000011E-002    -2.9014499136615779E-010
   1.3100000000000001E-002    -4.5274914373115522E-010
   1.4200000000000018E-002    -4.6588721769321005E-010
   1.5300000000000008E-002    -2.3388974090814788E-010
   1.6400000000000026E-002     2.2479873518228625E-010
   1.7500000000000016E-002     7.4239192571217030E-010
   1.8600000000000005E-002     1.0567259289828627E-009
   1.9700000000000023E-002     9.4277086137843336E-010
   2.0800000000000013E-002     3.5245645291214301E-010
   2.1900000000000003E-002    -5.2350362933508249E-010
   2.3000000000000020E-002    -1.3217454908343863E-009
   2.4100000000000010E-002    -1.6760574039764689E-009
   2.5200000000000000E-002    -1.3994205794175658E-009
   2.6300000000000018E-002    -5.7341370540680965E-010
   2.7400000000000008E-002     5.0465698286946099E-010
   2.8500000000000025E-002     1.4755425770120172E-009
   2.9600000000000015E-002     2.0681751866647379E-009
   3.0700000000000005E-002     2.1554271700807100E-009
   3.1800000000000023E-002     1.7089374360067017E-009
   3.2900000000000013E-002     7.3498135355597655E-010
   3.4000000000000002E-002    -7.1138639423676244E-010
   3.5100000000000020E-002    -2.4182476021652256E-009
   3.6200000000000010E-002    -3.9163139398113692E-009
   3.7300000000000028E-002    -4.5344377141986073E-009
   3.8400000000000017E-002    -3.6732008545922681E-009
   3.9500000000000007E-002    -1.1841161384747158E-009
   4.0600000000000025E-002     2.3872341881063703E-009
   4.1700000000000015E-002     5.8995981433443675E-009
   4.2800000000000005E-002     8.0592013063097032E-009
   4.3900000000000022E-002     7.9786195428252589E-009
   4.5000000000000012E-002     5.5355431349818675E-009
   4.6100000000000002E-002     1.3480001559423139E-009
   4.7200000000000020E-002    -3.5610603355001709E-009
   4.8300000000000010E-002    -8.1510904692552769E-009
   4.9400000000000027E-002    -1.1567725444194760E-008
   5.0500000000000017E-002    -1.3128359732661080E-008
   5.1600000000000007E-002    -1.2257221904121098E-008
   5.2700000000000025E-002    -8.5681248762618879E-009
   5.3800000000000014E-002    -2.1265402772024379E-009
   5.4900000000000004E-002     6.2952465462733027E-009
   5.6000000000000022E-002     1.5229829841700981E-008
   5.7100000000000012E-002     2.2900389140545326E-008
   5.8200000000000002E-002     2.7810695968355129E-008
   5.9300000000000019E-002     2.9178931271189457E-008
   6.0400000000000009E-002     2.6906858963115860E-008
   6.1500000000000027E-002     2.1053171650464944E-008
   6.2600000000000017E-002     1.1102102348559845E-008
   6.3700000000000007E-002    -4.5354746625027238E-009
   6.4800000000000024E-002    -2.8489147041454370E-008
   6.5900000000000014E-002    -6.3910697178926772E-008
   6.7000000000000004E-002    -1.1384924647473209E-007
   6.8100000000000022E-002    -1.8099179044384830E-007
   6.9200000000000012E-002    -2.6800941554939968E-007
   7.0300000000000029E-002    -3.7832811017326403E-007
   7.1400000000000019E-002    -5.1682286539292748E-007
   7.2500000000000009E-002    -6.8997775315442400E-007
   7.3600000000000027E-002    -9.0549156084313356E-007
   7.4700000000000016E-002    -1.1718526593541223E-006
   7.5800000000000006E-002    -1.4986301266618380E-006
   7.6900000000000024E-002    -1.8978630578204882E-006
   7.8000000000000014E-002    -2.3861509816926448E-006
   7.9100000000000004E-002    -2.9864027055739168E-006
   8.0200000000000021E-002    -3.7282447920008835E-006
   8.1300000000000011E-002    -4.6469344852088012E-006
   8.2400000000000029E-002    -5.7817223932947364E-006
   8.3500000000000019E-002    -7.1751865107221912E-006
   8.4600000000000009E-002    -8.8746010078472732E-006
   8.5700000000000026E-002    -1.0935184036498729E-005
   8.6800000000000016E-002    -1.3423950804281995E-005
   8.7900000000000006E-002    -1.6422663975391768E-005
   8.9000000000000024E-002    -2.0029245206389133E-005
   9.0100000000000013E-002    -2.4358194423259105E-005
   9.1200000000000003E-002    -2.9541402909673995E-005
   9.2300000000000021E-002    -3.5730339732256479E-005
   9.3400000000000011E-002    -4.3099615140821149E-005
   9.4500000000000028E-002    -5.1850958698200070E-005
   9.5600000000000018E-002    -6.2216531659946606E-005
   9.6700000000000008E-002    -7.4461066105874061E-005
   9.7800000000000026E-002    -8.8883527496370419E-005
   9.8900000000000016E-002    -1.0581925744191582E-004
  0.10000000000000001         -1.2564340431709759E-004
  0.10110000000000002         -1.4877563808114426E-004
  0.10220000000000001         -1.7568522889634022E-004
  0.10330000000000003         -2.0689539087472144E-004
  0.10440000000000002         -2.4298636708410388E-004
  0.10550000000000001         -2.8459707391450428E-004
  0.10660000000000003         -3.3242636709476499E-004
  0.10770000000000002         -3.8723440957258551E-004
  0.10880000000000001         -4.4984472333456962E-004
  0.10990000000000003         -5.2114611025903563E-004
  0.11100000000000002         -6.0209294315432074E-004
  0.11210000000000001         -6.9370242999871842E-004
  0.11320000000000002         -7.9704978270462234E-004
  0.11430000000000001         -9.1326091205708171E-004
  0.11540000000000003         -1.0435053845868310E-003
  0.11650000000000002         -1.1889903107658939E-003
  0.11760000000000001         -1.3509524287656986E-003
  0.11870000000000003         -1.5306484419853675E-003
  0.11980000000000002         -1.7293394776062515E-003
  0.12090000000000001         -1.9482724601404390E-003
  0.12200000000000003         -2.1886560134591376E-003
  0.12310000000000001         -2.4516386911274919E-003
  0.12420000000000003         -2.7382839471103908E-003
  0.12530000000000002         -3.0495484825226087E-003
  0.12640000000000001         -3.3862544223668867E-003
  0.12750000000000003         -3.7490606773647661E-003
  0.12860000000000002         -4.1384291835132557E-003
  0.12970000000000001         -4.5545892789963550E-003
  0.13080000000000003         -4.9975048750642978E-003
  0.13190000000000002         -5.4668374359612103E-003
  0.13300000000000001         -5.9619126841430718E-003
  0.13410000000000000         -6.4816940575843354E-003
  0.13520000000000004         -7.0247519761329662E-003
  0.13630000000000003         -7.5892410241073628E-003
  0.13740000000000002         -8.1728706136352594E-003
  0.13850000000000001         -8.7728891521699527E-003
  0.13960000000000000         -9.3860616907485168E-003
  0.14070000000000005         -1.0008667595685363E-002
  0.14180000000000004         -1.0636502876878676E-002
  0.14290000000000003         -1.1264889501036161E-002
  0.14400000000000002         -1.1888683773578218E-002
  0.14510000000000001         -1.2502308003605474E-002
  0.14620000000000000         -1.3099774718285724E-002
  0.14730000000000004         -1.3674737885595541E-002
  0.14840000000000003         -1.4220546931029593E-002
  0.14950000000000002         -1.4730313792826022E-002
  0.15060000000000001         -1.5196979045869244E-002
  0.15170000000000000         -1.5613393858076509E-002
  0.15280000000000005         -1.5972409397365068E-002
  0.15390000000000004         -1.6266975551845083E-002
  0.15500000000000003         -1.6490234062077083E-002
  0.15610000000000002         -1.6635630279780926E-002
  0.15720000000000001         -1.6697026789189891E-002
  0.15830000000000000         -1.6668802127243601E-002
  0.15940000000000004         -1.6545964404942118E-002
  0.16050000000000003         -1.6324250027538852E-002
  0.16160000000000002         -1.6000235453249509E-002
  0.16270000000000001         -1.5571425668896704E-002
  0.16380000000000000         -1.5036331489683620E-002
  0.16490000000000005         -1.4394538477064555E-002
  0.16600000000000004         -1.3646764680744538E-002
  0.16710000000000003         -1.2794903479517760E-002
  0.16820000000000002         -1.1842055246235118E-002
  0.16930000000000001         -1.0792535729707380E-002
  0.17040000000000000         -9.6518574282536962E-003
  0.17150000000000004         -8.4266969934114842E-003
  0.17260000000000003         -7.1248468011625519E-003
  0.17370000000000002         -5.7551539503044617E-003
  0.17480000000000001         -4.3274359777575218E-003
  0.17590000000000000         -2.8523709625009872E-003
  0.17700000000000005         -1.3413670239972896E-003
  0.17810000000000004          1.9357581913922564E-004
  0.17920000000000003          1.7400122014805642E-003
  0.18030000000000002          3.2852001022548863E-003
  0.18140000000000001          4.8162592574956826E-003
  0.18250000000000000          6.3203359022740747E-003
  0.18360000000000004          7.7847801148897026E-003
  0.18470000000000003          9.1973198577768572E-003
  0.18580000000000002          1.0546226054430830E-002
  0.18690000000000001          1.1820466257632724E-002
  0.18800000000000000          1.3009841553867927E-002
  0.18910000000000005          1.4105112291873674E-002
  0.19020000000000004          1.5098121017218911E-002
  0.19130000000000003          1.5981888398529466E-002
  0.19240000000000002          1.6750700771810074E-002
  0.19350000000000001          1.7400162294508546E-002
  0.19460000000000005          1.7927227541805896E-002
  0.19570000000000004          1.8330227583648405E-002
  0.19680000000000003          1.8608847633005857E-002
  0.19790000000000002          1.8764095380903983E-002
  0.19900000000000001          1.8798278644682687E-002
  0.20010000000000000          1.8714945763351247E-002
  0.20120000000000005          1.8518796190621176E-002
  0.20230000000000004          1.8215574324132702E-002
  0.20340000000000003          1.7811950296165221E-002
  0.20450000000000002          1.7315387725831702E-002
  0.20560000000000000          1.6734037548305183E-002
  0.20670000000000005          1.6076622530819512E-002
  0.20780000000000004          1.5352291055025138E-002
  0.20890000000000003          1.4570477418602915E-002
