  -8.00000000       0.00000000
  -7.84000015       0.00000000
  -7.67999983       0.00000000
  -7.51999998       0.00000000
  -7.36000013       0.00000000
  -7.19999981       0.00000000
  -7.03999996       0.00000000
  -6.88000011      -1.86162250E-25
  -6.71999979      -1.85782522E-24
  -6.55999994      -1.97367950E-23
  -6.40000010      -9.85516040E-23
  -6.23999977      -1.53488666E-22
  -6.07999992       5.18449838E-22
  -5.92000008       2.72979518E-21
  -5.76000023       3.07888761E-21
  -5.59999990      -9.74647933E-21
  -5.44000006      -3.65593862E-20
  -5.28000021      -2.05059916E-20
  -5.11999989       1.38307649E-19
  -4.96000004       3.53802338E-19
  -4.80000019       6.80108675E-20
  -4.63999987      -1.28991579E-18
  -4.48000002      -2.56184226E-18
  -4.32000017       1.34162207E-19
  -4.15999985       9.04909451E-18
  -4.00000000       1.51396154E-17
  -3.83999991      -2.79868537E-18
  -3.68000007      -5.06857964E-17
  -3.51999998      -7.63037918E-17
  -3.35999990       1.73834206E-17
  -3.20000005       2.37566007E-16
  -3.03999996       3.39992037E-16
  -2.88000011      -6.47960154E-17
  -2.72000003      -9.58929811E-16
  -2.55999994      -1.37208940E-15
  -2.40000010       1.13406065E-16
  -2.24000001       3.38858876E-15
  -2.07999992       5.09742861E-15
  -1.91999996       4.57738034E-16
  -1.75999999      -1.04557129E-14
  -1.60000002      -1.74624651E-14
  -1.44000006      -5.51725710E-15
  -1.27999997       2.73115576E-14
  -1.12000000       5.42256263E-14
 -0.959999979       3.15217179E-14
 -0.800000012      -5.53489376E-14
 -0.639999986      -1.47290573E-13
 -0.479999989      -1.29906746E-13
 -0.319999993       6.26934960E-14
 -0.159999996       3.30648242E-13
   0.00000000       4.13697153E-13
  0.159999996       8.98080506E-14
  0.319999993      -5.49817407E-13
  0.479999989      -1.01752547E-12
  0.639999986      -7.28906681E-13
  0.800000012       4.45944849E-13
  0.959999979       1.83167544E-12
   1.12000000       2.23114951E-12
   1.27999997       8.19985518E-13
   1.44000006      -1.95690751E-12
   1.60000002      -4.29336167E-12
   1.75999999      -4.07091244E-12
   1.91999996      -5.05058126E-13
   2.07999992       4.78984864E-12
   2.24000001       8.32433081E-12
   2.40000010       6.85944010E-12
   2.55999994      -7.15130402E-14
   2.72000003      -9.03986348E-12
   2.88000011      -1.41904830E-11
   3.03999996      -1.08732190E-11
   3.20000005       6.94212591E-13
   3.35999990       1.44056000E-11
   3.51999998       2.12560924E-11
   3.68000007       1.50964623E-11
   3.83999991      -2.36566821E-12
   4.00000000      -2.10427144E-11
   4.15999985      -2.77819521E-11
   4.32000017      -1.51376238E-11
   4.48000002       1.16792504E-11
   4.63999987       3.50612941E-11
   4.80000019       3.45066788E-11
   4.96000004       1.61345514E-12
   5.11999989      -4.85729824E-11
   5.28000021      -8.00391420E-11
   5.44000006      -5.59846926E-11
   5.59999990       3.17869620E-11
   5.76000023       1.43869028E-10
   5.92000008       2.03979972E-10
   6.07999992       1.42379636E-10
   6.23999977      -4.99496521E-11
   6.40000010      -2.93754132E-10
   6.55999994      -4.48493798E-10
   6.71999979      -3.88453991E-10
   6.88000011      -8.62738353E-11
   7.03999996       3.50194124E-10
   7.19999981       7.17979176E-10
   7.36000013       8.19709023E-10
   7.51999998       5.69612024E-10
   7.67999983       4.39396644E-11
   7.84000015      -5.53561252E-10
   8.00000000      -9.91890570E-10
   8.15999985      -1.12272269E-09
   8.31999969      -9.39112010E-10
   8.47999954      -5.50595347E-10
   8.64000034      -8.87779988E-11
   8.80000019       4.01805256E-10
   8.96000004       1.01933106E-09
   9.11999989       1.96251060E-09
   9.27999973       3.39923401E-09
   9.43999958       5.30971489E-09
   9.60000038       7.38966754E-09
   9.76000023       9.06507935E-09
   9.92000008       9.59028235E-09
   10.0799999       8.11924927E-09
   10.2399998       3.60925223E-09
   10.3999996      -5.54426771E-09
   10.5600004      -2.21686314E-08
   10.7200003      -5.12624005E-08
   10.8800001      -1.01280612E-07
   11.0400000      -1.85943421E-07
   11.1999998      -3.26897350E-07
   11.3599997      -5.57627743E-07
   11.5200005      -9.29002283E-07
   11.6800003      -1.51677125E-06
   11.8400002      -2.43133059E-06
   12.0000000      -3.83007409E-06
   12.1599998      -5.93261893E-06
   12.3199997      -9.03895489E-06
   12.4799995      -1.35500522E-05
   12.6400003      -1.99896531E-05
   12.8000002      -2.90250246E-05
   12.9600000      -4.14834540E-05
   13.1199999      -5.83602887E-05
   13.2799997      -8.08136028E-05
   13.4399996      -1.10139801E-04
   13.6000004      -1.47724480E-04
   13.7600002      -1.94963359E-04
   13.9200001      -2.53149861E-04
   14.0799999      -3.23328684E-04
   14.2399998      -4.06119216E-04
   14.3999996      -5.01517090E-04
   14.5600004      -6.08688220E-04
   14.7200003      -7.25774386E-04
   14.8800001      -8.49734119E-04
   15.0400000      -9.76245501E-04
   15.1999998      -1.09969731E-03
   15.3599997      -1.21329236E-03
   15.5200005      -1.30927784E-03
   15.6800003      -1.37930887E-03
   15.8400002      -1.41493999E-03
   16.0000000      -1.40821701E-03
   16.1599998      -1.35233649E-03
   16.3199997      -1.24231761E-03
   16.4799995      -1.07562938E-03
   16.6399994      -8.52702942E-04
   16.7999992      -5.77271916E-04
   16.9599991      -2.56484665E-04
   17.1200008       9.92437126E-05
   17.2800007       4.76652407E-04
   17.4400005       8.60313594E-04
   17.6000004       1.23352697E-03
   17.7600002       1.57936430E-03
   17.9200001       1.88177894E-03
   18.0799999       2.12668651E-03
   18.2399998       2.30292231E-03
   18.3999996       2.40299292E-03
   18.5599995       2.42355629E-03
   18.7199993       2.36559194E-03
   18.8799992       2.23425566E-03
   19.0400009       2.03843811E-03
   19.2000008       1.79007393E-03
   19.3600006       1.50327710E-03
   19.5200005       1.19337498E-03
   19.6800003       8.75927100E-04
   19.8400002       5.65801573E-04
   20.0000000       2.76373379E-04
   20.1599998       1.88845079E-05
   20.3199997      -1.98007168E-04
   20.4799995      -3.68487294E-04
   20.6399994      -4.89663624E-04
   20.7999992      -5.61485358E-04
   20.9599991      -5.86531125E-04
   21.1200008      -5.69696829E-04
   21.2800007      -5.17812558E-04
   21.4400005      -4.39213065E-04
   21.6000004      -3.43283202E-04
   21.7600002      -2.39993140E-04
   21.9200001      -1.39437456E-04
   22.0799999      -5.13903069E-05
   22.2399998       1.51120485E-05
   22.3999996       5.21525326E-05
   22.5599995       5.32715785E-05
   22.7199993       1.37572861E-05
   22.8799992      -6.91177847E-05
   23.0400009      -1.95917790E-04
   23.2000008      -3.64926877E-04
   23.3600006      -5.72099059E-04
   23.5200005      -8.11080507E-04
   23.6800003      -1.07331481E-03
   23.8400002      -1.34824368E-03
   24.0000000      -1.62361888E-03
   24.1599998      -1.88593648E-03
   24.3199997      -2.12100009E-03
   24.4799995      -2.31460226E-03
   24.6399994      -2.45331321E-03
   24.7999992      -2.52533075E-03
   24.9599991      -2.52134050E-03
   25.1200008      -2.43531633E-03
   25.2800007      -2.26517580E-03
   25.4400005      -2.01320997E-03
   25.6000004      -1.68621680E-03
   25.7600002      -1.29528565E-03
   25.9200001      -8.55210470E-04
   26.0799999      -3.83547187E-04
   26.2399998       1.00625584E-04
   26.3999996       5.78149164E-04
   26.5599995       1.03129831E-03
   26.7199993       1.44521717E-03
   26.8799992       1.80911727E-03
   27.0400009       2.11709621E-03
   27.2000008       2.36845249E-03
   27.3600006       2.56743538E-03
   27.5200005       2.72241002E-03
   27.6800003       2.84449849E-03
   27.8400002       2.94581661E-03
   28.0000000       3.03748366E-03
   28.1599998       3.12763313E-03
   28.3199997       3.21966130E-03
   28.4799995       3.31096188E-03
   28.6399994       3.39234155E-03
   28.7999992       3.44826281E-03
   28.9599991       3.45795881E-03
   29.1200008       3.39738163E-03
   29.2800007       3.24182492E-03
   29.4400005       2.96898163E-03
   29.6000004       2.56211637E-03
   29.7600002       2.01299507E-03
   29.9200001       1.32421707E-03
   30.0799999       5.10635960E-04
   30.2399998      -4.00364370E-04
   30.3999996      -1.36985246E-03
   30.5599995      -2.34958576E-03
   30.7199993      -3.28534609E-03
   30.8799992      -4.12110239E-03
   31.0400009      -4.80362447E-03
   31.2000008      -5.28711220E-03
   31.3600006      -5.53739769E-03
   31.5200005      -5.53528825E-03
   31.6800003      -5.27871773E-03
   31.8400002      -4.78345901E-03
