  -8.00000000       0.00000000
  -7.84000015       0.00000000
  -7.67999983       0.00000000
  -7.51999998       0.00000000
  -7.36000013       0.00000000
  -7.19999981       1.08515765E-17
  -7.03999996      -1.56467102E-16
  -6.88000011      -1.39252555E-15
  -6.71999979      -3.77157513E-15
  -6.55999994       7.77161888E-16
  -6.40000010       3.42704076E-14
  -6.23999977       1.07370425E-13
  -6.07999992       1.45799551E-13
  -5.92000008      -5.30914288E-14
  -5.76000023      -6.56264648E-13
  -5.59999990      -1.37778992E-12
  -5.44000006      -1.21201302E-12
  -5.28000021       9.62399648E-13
  -5.11999989       4.76431741E-12
  -4.96000004       7.02090816E-12
  -4.80000019       3.04738353E-12
  -4.63999987      -8.86433982E-12
  -4.48000002      -2.29023796E-11
  -4.32000017      -2.66453127E-11
  -4.15999985      -9.86646702E-12
  -4.00000000       2.40175258E-11
  -3.83999991       5.45057298E-11
  -3.68000007       5.52144060E-11
  -3.51999998       1.39550836E-11
  -3.35999990      -5.42204337E-11
  -3.20000005      -1.13769556E-10
  -3.03999996      -1.31944455E-10
  -2.88000011      -1.00139723E-10
  -2.72000003      -3.54333368E-11
  -2.55999994       3.77868431E-11
  -2.40000010       1.06814092E-10
  -2.24000001       1.69161976E-10
  -2.07999992       2.10130580E-10
  -1.91999996       1.84828666E-10
  -1.75999999       3.52214716E-11
  -1.60000002      -2.54678501E-10
  -1.44000006      -6.04090944E-10
  -1.27999997      -8.37061531E-10
  -1.12000000      -7.63246133E-10
 -0.959999979      -2.95908270E-10
 -0.800000012       4.75292639E-10
 -0.639999986       1.31042099E-09
 -0.479999989       1.91849314E-09
 -0.319999993       2.04984762E-09
 -0.159999996       1.53298874E-09
   0.00000000       2.94200553E-10
  0.159999996      -1.56361768E-09
  0.319999993      -3.62600416E-09
  0.479999989      -5.11289278E-09
  0.639999986      -5.07456699E-09
  0.800000012      -2.84986590E-09
  0.959999979       1.44315515E-09
   1.12000000       6.71741684E-09
   1.27999997       1.12009886E-08
   1.44000006       1.30623459E-08
   1.60000002       1.10535705E-08
   1.75999999       4.92099961E-09
   1.91999996      -4.44544579E-09
   2.07999992      -1.50288653E-08
   2.24000001      -2.38543265E-08
   2.40000010      -2.74404410E-08
   2.55999994      -2.26394832E-08
   2.72000003      -7.72920750E-09
   2.88000011       1.66450818E-08
   3.03999996       4.71189487E-08
   3.20000005       7.80480818E-08
   3.35999990       1.02580749E-07
   3.51999998       1.13926866E-07
   3.68000007       1.06260195E-07
   3.83999991       7.46943343E-08
   4.00000000       1.39120022E-08
   4.15999985      -8.46825898E-08
   4.32000017      -2.37081778E-07
   4.48000002      -4.71760671E-07
   4.63999987      -8.35810113E-07
   4.80000019      -1.40293673E-06
   4.96000004      -2.28473573E-06
   5.11999989      -3.64663902E-06
   5.28000021      -5.72939780E-06
   5.44000006      -8.87647639E-06
   5.59999990      -1.35680048E-05
   5.76000023      -2.04628104E-05
   5.92000008      -3.04510068E-05
   6.07999992      -4.47196471E-05
   6.23999977      -6.48328642E-05
   6.40000010      -9.28256195E-05
   6.55999994      -1.31307417E-04
   6.71999979      -1.83567900E-04
   6.88000011      -2.53670500E-04
   7.03999996      -3.46511719E-04
   7.19999981      -4.67814243E-04
   7.36000013      -6.24014705E-04
   7.51999998      -8.22004688E-04
   7.67999983      -1.06868660E-03
   7.84000015      -1.37032091E-03
   8.00000000      -1.73166371E-03
   8.15999985      -2.15492235E-03
   8.31999969      -2.63859495E-03
   8.47999954      -3.17630358E-03
   8.64000034      -3.75576271E-03
   8.80000019      -4.35806252E-03
   8.96000004      -4.95744869E-03
   9.11999989      -5.52176265E-03
   9.27999973      -6.01365510E-03
   9.43999958      -6.39261911E-03
   9.60000038      -6.61776261E-03
   9.76000023      -6.65114634E-03
   9.92000008      -6.46140985E-03
   10.0799999      -6.02730317E-03
   10.2399998      -5.34072006E-03
   10.3999996      -4.40880843E-03
   10.5600004      -3.25483386E-03
   10.7200003      -1.91756489E-03
   10.8800001      -4.49140178E-04
   11.0400000       1.08843332E-03
   11.1999998       2.62782397E-03
   11.3599997       4.10147570E-03
   11.5200005       5.44669479E-03
   11.6800003       6.61012903E-03
   11.8400002       7.55114295E-03
   12.0000000       8.24372470E-03
   12.1599998       8.67677946E-03
   12.3199997       8.85288790E-03
   12.4799995       8.78585596E-03
   12.6400003       8.49749614E-03
   12.8000002       8.01422540E-03
   12.9600000       7.36402767E-03
   13.1199999       6.57424890E-03
   13.2799997       5.67049859E-03
   13.4399996       4.67670942E-03
   13.6000004       3.61617724E-03
   13.7600002       2.51319492E-03
   13.9200001       1.39476324E-03
   14.0799999       2.91841367E-04
   14.2399998      -7.60339375E-04
   14.3999996      -1.72320043E-03
   14.5600004      -2.55705649E-03
   14.7200003      -3.22449277E-03
   14.8800001      -3.69446585E-03
   15.0400000      -3.94652272E-03
   15.1999998      -3.97445075E-03
   15.3599997      -3.78868077E-03
   15.5200005      -3.41691636E-03
   15.6800003      -2.90267239E-03
   15.8400002      -2.30171741E-03
   16.0000000      -1.67668809E-03
   16.1599998      -1.09043077E-03
   16.3199997      -5.98822604E-04
   16.4799995      -2.43941671E-04
   16.6399994      -4.84341799E-05
   16.7999992      -1.18149646E-05
   16.9599991      -1.09207802E-04
   17.1200008      -2.92751560E-04
   17.2800007      -4.95593180E-04
   17.4400005      -6.38093334E-04
   17.6000004      -6.35630044E-04
   17.7600002      -4.07218904E-04
   17.9200001       1.15906063E-04
   18.0799999       9.82582453E-04
   18.2399998       2.21560197E-03
   18.3999996       3.80772725E-03
   18.5599995       5.72016463E-03
   18.7199993       7.88358320E-03
   18.8799992       1.02015510E-02
   19.0400009       1.25560751E-02
   19.2000008       1.48147689E-02
   19.3600006       1.68391261E-02
   19.5200005       1.84932798E-02
   19.6800003       1.96526684E-02
   19.8400002       2.02120673E-02
   20.0000000       2.00924724E-02
   20.1599998       1.92464720E-02
   20.3199997       1.76617708E-02
   20.4799995       1.53626883E-02
   20.6399994       1.24095548E-02
   20.7999992       8.89600255E-03
   20.9599991       4.94434498E-03
   21.1200008       6.99289900E-04
   21.2800007      -3.67963873E-03
   21.4400005      -8.02649744E-03
   21.6000004      -1.21776080E-02
   21.7600002      -1.59799810E-02
   21.9200001      -1.92989279E-02
   22.0799999      -2.20244024E-02
   22.2399998      -2.40756888E-02
   22.3999996      -2.54041608E-02
   22.5599995      -2.59940792E-02
   22.7199993      -2.58614141E-02
   22.8799992      -2.50509605E-02
   23.0400009      -2.36320253E-02
   23.2000008      -2.16931216E-02
   23.3600006      -1.93360858E-02
   23.5200005      -1.66700836E-02
   23.6800003      -1.38058746E-02
   23.8400002      -1.08506475E-02
   24.0000000      -7.90369790E-03
   24.1599998      -5.05304849E-03
   24.3199997      -2.37309327E-03
   24.4799995       7.67586243E-05
   24.6399994       2.25252938E-03
   24.7999992       4.12532175E-03
   24.9599991       5.68031752E-03
   25.1200008       6.91526476E-03
   25.2800007       7.83861149E-03
   25.4400005       8.46741721E-03
   25.6000004       8.82519316E-03
   25.7600002       8.93977843E-03
   25.9200001       8.84137116E-03
   26.0799999       8.56080651E-03
   26.2399998       8.12813453E-03
   26.3999996       7.57156219E-03
   26.5599995       6.91675348E-03
   26.7199993       6.18648855E-03
   26.8799992       5.40063158E-03
   27.0400009       4.57635708E-03
   27.2000008       3.72856483E-03
   27.3600006       2.87040719E-03
   27.5200005       2.01386190E-03
   27.6800003       1.17028190E-03
   27.8400002       3.50880990E-04
   28.0000000      -4.32887464E-04
   28.1599998      -1.16907619E-03
   28.3199997      -1.84512918E-03
   28.4799995      -2.44791852E-03
   28.6399994      -2.96394830E-03
   28.7999992      -3.37973074E-03
   28.9599991      -3.68234632E-03
   29.1200008      -3.86017421E-03
   29.2800007      -3.90377757E-03
   29.4400005      -3.80689302E-03
   29.6000004      -3.56746395E-03
   29.7600002      -3.18860938E-03
   29.9200001      -2.67942017E-03
   30.0799999      -2.05544406E-03
   30.2399998      -1.33875269E-03
   30.3999996      -5.57495165E-04
   30.5599995       2.55110557E-04
   30.7199993       1.06234534E-03
   30.8799992       1.82604778E-03
   31.0400009       2.50902516E-03
   31.2000008       3.07761761E-03
   31.3600006       3.50417942E-03
   31.5200005       3.76923429E-03
   31.6800003       3.86308343E-03
   31.8400002       3.78668658E-03
