  -8.00000000       0.00000000
  -7.84000015       0.00000000
  -7.67999983       0.00000000
  -7.51999998       0.00000000
  -7.36000013       0.00000000
  -7.19999981       0.00000000
  -7.03999996      -1.30664640E-20
  -6.88000011      -9.26621228E-20
  -6.71999979      -2.35317840E-19
  -6.55999994       9.40762721E-20
  -6.40000010       1.95402146E-18
  -6.23999977       3.28168460E-18
  -6.07999992      -7.05477612E-18
  -5.92000008      -3.85667733E-17
  -5.76000023      -5.49901168E-17
  -5.59999990       4.20515032E-17
  -5.44000006       2.60759331E-16
  -5.28000021       2.48511102E-16
  -5.11999989      -5.57831335E-16
  -4.96000004      -1.84459170E-15
  -4.80000019      -1.36224317E-15
  -4.63999987       3.39041645E-15
  -4.48000002       9.81498919E-15
  -4.32000017       7.00857210E-15
  -4.15999985      -1.52310839E-14
  -4.00000000      -4.54261567E-14
  -3.83999991      -4.08190700E-14
  -3.68000007       3.92034122E-14
  -3.51999998       1.62479771E-13
  -3.35999990       1.89708234E-13
  -3.20000005      -3.15942408E-14
  -3.03999996      -4.57164092E-13
  -2.88000011      -7.12877403E-13
  -2.72000003      -2.93130402E-13
  -2.55999994       8.91673833E-13
  -2.40000010       2.04772549E-12
  -2.24000001       1.76596010E-12
  -2.07999992      -7.59318064E-13
  -1.91999996      -4.35737297E-12
  -1.75999999      -5.86127674E-12
  -1.60000002      -2.31439542E-12
  -1.44000006       5.75028046E-12
  -1.27999997       1.29407509E-11
  -1.12000000       1.19605706E-11
 -0.959999979      -1.79697078E-13
 -0.800000012      -1.75877073E-11
 -0.639999986      -2.76061726E-11
 -0.479999989      -1.97135190E-11
 -0.319999993       5.18223485E-12
 -0.159999996       3.32176092E-11
   0.00000000       4.62480575E-11
  0.159999996       3.43307743E-11
  0.319999993       1.97364499E-12
  0.479999989      -3.63137437E-11
  0.639999986      -6.57548738E-11
  0.800000012      -7.65540131E-11
  0.959999979      -6.10630574E-11
   1.12000000      -1.03705699E-11
   1.27999997       7.82748102E-11
   1.44000006       1.82386772E-10
   1.60000002       2.41311943E-10
   1.75999999       1.75484752E-10
   1.91999996      -5.43702236E-11
   2.07999992      -3.80469378E-10
   2.24000001      -6.16427576E-10
   2.40000010      -5.45635093E-10
   2.55999994      -8.07368131E-11
   2.72000003       6.14556017E-10
   2.88000011       1.15891341E-09
   3.03999996       1.16282473E-09
   3.20000005       4.92542840E-10
   3.35999990      -5.99646666E-10
   3.51999998      -1.58546232E-09
   3.68000007      -1.94443084E-09
   3.83999991      -1.43531376E-09
   4.00000000      -2.00332487E-10
   4.15999985       1.31508293E-09
   4.32000017       2.53581778E-09
   4.48000002       2.93565217E-09
   4.63999987       2.19994312E-09
   4.80000019       3.77506137E-10
   4.96000004      -2.02355066E-09
   5.11999989      -4.09727585E-09
   5.28000021      -4.83198237E-09
   5.44000006      -3.58233332E-09
   5.59999990      -5.19833288E-10
   5.76000023       3.22373439E-09
   5.92000008       5.94192384E-09
   6.07999992       6.23580787E-09
   6.23999977       3.97945232E-09
   6.40000010       6.92259472E-10
   6.55999994      -1.18605104E-09
   6.71999979       5.74795211E-11
   6.88000011       3.78810494E-09
   7.03999996       6.56213883E-09
   7.19999981       3.23157678E-09
   7.36000013      -1.11588934E-08
   7.51999998      -4.01590334E-08
   7.67999983      -8.65341647E-08
   7.84000015      -1.54852927E-07
   8.00000000      -2.55330605E-07
   8.15999985      -4.08069042E-07
   8.31999969      -6.47222521E-07
   8.47999954      -1.02512593E-06
   8.64000034      -1.61692356E-06
   8.80000019      -2.52684140E-06
   8.96000004      -3.89769957E-06
   9.11999989      -5.92488232E-06
   9.27999973      -8.87450915E-06
   9.43999958      -1.31037414E-05
   9.60000038      -1.90803057E-05
   9.76000023      -2.73989390E-05
   9.92000008      -3.87933978E-05
   10.0799999      -5.41421978E-05
   10.2399998      -7.44643767E-05
   10.3999996      -1.00899189E-04
   10.5600004      -1.34663016E-04
   10.7200003      -1.76978516E-04
   10.8800001      -2.28973091E-04
   11.0400000      -2.91546341E-04
   11.1999998      -3.65209708E-04
   11.3599997      -4.49905987E-04
   11.5200005      -5.44823182E-04
   11.6800003      -6.48221641E-04
   11.8400002      -7.57297908E-04
   12.0000000      -8.68109637E-04
   12.1599998      -9.75585659E-04
   12.3199997      -1.07364159E-03
   12.4799995      -1.15541613E-03
   12.6400003      -1.21363159E-03
   12.8000002      -1.24106230E-03
   12.9600000      -1.23108318E-03
   13.1199999      -1.17825530E-03
   13.2799997      -1.07889844E-03
   13.4399996      -9.31593531E-04
   13.6000004      -7.37555325E-04
   13.7600002      -5.00823604E-04
   13.9200001      -2.28236357E-04
   14.0799999       7.08287043E-05
   14.2399998       3.84931162E-04
   14.3999996       7.01228448E-04
   14.5600004       1.00626424E-03
   14.7200003       1.28681457E-03
   14.8800001       1.53071643E-03
   15.0400000       1.72760349E-03
   15.1999998       1.86949351E-03
   15.3599997       1.95118564E-03
   15.5200005       1.97045272E-03
   15.6800003       1.92803179E-03
   15.8400002       1.82743836E-03
   16.0000000       1.67464023E-03
   16.1599998       1.47764047E-03
   16.3199997       1.24600600E-03
   16.4799995       9.90374363E-04
   16.6399994       7.21951132E-04
   16.7999992       4.52006556E-04
   16.9599991       1.91372688E-04
   17.1200008      -5.00541173E-05
   17.2800007      -2.63791357E-04
   17.4400005      -4.43207013E-04
   17.6000004      -5.83879999E-04
   17.7600002      -6.83841936E-04
   17.9200001      -7.43657234E-04
   18.0799999      -7.66301993E-04
   18.2399998      -7.56821944E-04
   18.3999996      -7.21778022E-04
   18.5599995      -6.68525521E-04
   18.7199993      -6.04406290E-04
   18.8799992      -5.35959087E-04
   19.0400009      -4.68260405E-04
   19.2000008      -4.04497696E-04
   19.3600006      -3.45844659E-04
   19.5200005      -2.91665841E-04
   19.6800003      -2.40022971E-04
   19.8400002      -1.88402541E-04
   20.0000000      -1.34541886E-04
   20.1599998      -7.72079002E-05
   20.3199997      -1.67838807E-05
   20.4799995       4.44531397E-05
   20.6399994       1.02433849E-04
   20.7999992       1.51781263E-04
   20.9599991       1.86612961E-04
   21.1200008       2.01536284E-04
   21.2800007       1.92675405E-04
   21.4400005       1.58561248E-04
   21.6000004       1.00733327E-04
   21.7600002       2.39437195E-05
   21.9200001      -6.40869912E-05
   22.0799999      -1.53340574E-04
   22.2399998      -2.32508595E-04
   22.3999996      -2.90194701E-04
   22.5599995      -3.16145975E-04
   22.7199993      -3.02354485E-04
   22.8799992      -2.43897070E-04
   23.0400009      -1.39426978E-04
   23.2000008       8.71689826E-06
   23.3600006       1.94760418E-04
   23.5200005       4.10035951E-04
   23.6800003       6.43721432E-04
   23.8400002       8.83676228E-04
   24.0000000       1.11728499E-03
   24.1599998       1.33223820E-03
   24.3199997       1.51720305E-03
   24.4799995       1.66236132E-03
   24.6399994       1.75981852E-03
   24.7999992       1.80389592E-03
   24.9599991       1.79132272E-03
   25.1200008       1.72132754E-03
   25.2800007       1.59562589E-03
   25.4400005       1.41829159E-03
   25.6000004       1.19550154E-03
   25.7600002       9.35157761E-04
   25.9200001       6.46398927E-04
   26.0799999       3.39037681E-04
   26.2399998       2.29803336E-05
   26.3999996      -2.92306126E-04
   26.5599995      -5.98215032E-04
   26.7199993      -8.87265371E-04
   26.8799992      -1.15318969E-03
   27.0400009      -1.39085238E-03
   27.2000008      -1.59604405E-03
   27.3600006      -1.76522613E-03
   27.5200005      -1.89531094E-03
   27.6800003      -1.98355876E-03
   27.8400002      -2.02763733E-03
   28.0000000      -2.02586711E-03
   28.1599998      -1.97761972E-03
   28.3199997      -1.88381341E-03
   28.4799995      -1.74738769E-03
   28.6399994      -1.57364947E-03
   28.7999992      -1.37036911E-03
   28.9599991      -1.14756776E-03
   29.1200008      -9.16963618E-04
   29.2800007      -6.91118476E-04
   29.4400005      -4.82358271E-04
   29.6000004      -3.01609631E-04
   29.7600002      -1.57305170E-04
   29.9200001      -5.45210314E-05
   30.0799999       5.53834707E-06
   30.2399998       2.56312924E-05
   30.3999996       1.21272487E-05
   30.5599995      -2.57518532E-05
   30.7199993      -7.69991457E-05
   30.8799992      -1.30050350E-04
   31.0400009      -1.73999375E-04
   31.2000008      -1.99649134E-04
   31.3600006      -2.00282884E-04
   31.5200005      -1.72092376E-04
   31.6800003      -1.14240553E-04
   31.8400002      -2.85703882E-05
