  -8.00000000       0.00000000
  -7.84000015       0.00000000
  -7.67999983       0.00000000
  -7.51999998       0.00000000
  -7.36000013       0.00000000
  -7.19999981       7.75351820E-24
  -7.03999996      -1.25480419E-22
  -6.88000011      -2.52234122E-22
  -6.71999979      -7.40557354E-21
  -6.55999994      -3.91526394E-20
  -6.40000010      -4.69521965E-20
  -6.23999977       1.32055171E-19
  -6.07999992       3.22818272E-19
  -5.92000008      -5.57316608E-19
  -5.76000023      -2.82327393E-18
  -5.59999990      -2.03562283E-18
  -5.44000006       8.58537292E-18
  -5.28000021       2.15258749E-17
  -5.11999989       4.12917891E-18
  -4.96000004      -6.42171610E-17
  -4.80000019      -1.18069325E-16
  -4.63999987      -1.30643707E-17
  -4.48000002       2.87280171E-16
  -4.32000017       4.98187934E-16
  -4.15999985       1.40554318E-16
  -4.00000000      -8.83258746E-16
  -3.83999991      -1.78783837E-15
  -3.68000007      -1.22160246E-15
  -3.51999998       1.52485688E-15
  -3.35999990       5.24784345E-15
  -3.20000005       6.53470503E-15
  -3.03999996       1.23329871E-15
  -2.88000011      -1.17081866E-14
  -2.72000003      -2.49710039E-14
  -2.55999994      -2.16061825E-14
  -2.40000010       1.36774095E-14
  -2.24000001       7.06042009E-14
  -2.07999992       9.79950374E-14
  -1.91999996       3.01405968E-14
  -1.75999999      -1.39907386E-13
  -1.60000002      -2.97503721E-13
  -1.44000006      -2.45787006E-13
  -1.27999997       1.23842912E-13
  -1.12000000       6.43380856E-13
 -0.959999979       8.66592984E-13
 -0.800000012       3.65289288E-13
 -0.639999986      -8.25347386E-13
 -0.479999989      -1.98340064E-12
 -0.319999993      -2.01876601E-12
 -0.159999996      -2.82007761E-13
   0.00000000       2.65183535E-12
  0.159999996       4.92055095E-12
  0.319999993       4.37208516E-12
  0.479999989       1.81082390E-13
  0.639999986      -6.02804699E-12
  0.800000012      -1.05903029E-11
  0.959999979      -9.79450462E-12
   1.12000000      -2.28857688E-12
   1.27999997       9.66076698E-12
   1.44000006       2.07323603E-11
   1.60000002       2.43830980E-11
   1.75999999       1.51714492E-11
   1.91999996      -8.36519309E-12
   2.07999992      -4.01107897E-11
   2.24000001      -6.40352216E-11
   2.40000010      -5.78738862E-11
   2.55999994      -6.36482533E-12
   2.72000003       8.02670361E-11
   2.88000011       1.56900451E-10
   3.03999996       1.59110294E-10
   3.20000005       4.54207366E-11
   3.35999990      -1.56514357E-10
   3.51999998      -3.37963546E-10
   3.68000007      -3.57289393E-10
   3.83999991      -1.34053102E-10
   4.00000000       2.68022909E-10
   4.15999985       6.36658837E-10
   4.32000017       7.12591763E-10
   4.48000002       3.53081619E-10
   4.63999987      -3.41647627E-10
   4.80000019      -1.03278963E-09
   4.96000004      -1.30114686E-09
   5.11999989      -8.86272167E-10
   5.28000021       1.27356473E-10
   5.44000006       1.29742672E-09
   5.59999990       2.01891770E-09
   5.76000023       1.84547355E-09
   5.92000008       7.66360697E-10
   6.07999992      -7.37903905E-10
   6.23999977      -1.93546756E-09
   6.40000010      -2.27301999E-09
   6.55999994      -1.73463366E-09
   6.71999979      -8.63080329E-10
   6.88000011      -3.71666475E-10
   7.03999996      -5.67248859E-10
   7.19999981      -9.83519155E-10
   7.36000013      -5.27349053E-10
   7.51999998       1.88731675E-09
   7.67999983       6.56854349E-09
   7.84000015       1.25695907E-08
   8.00000000       1.77211543E-08
   8.15999985       1.90392520E-08
   8.31999969       1.31262459E-08
   8.47999954      -3.84967391E-09
   8.64000034      -3.68679984E-08
   8.80000019      -9.35537159E-08
   8.96000004      -1.86473244E-07
   9.11999989      -3.36341316E-07
   9.27999973      -5.76523121E-07
   9.43999958      -9.59526233E-07
   9.60000038      -1.56640158E-06
   9.76000023      -2.52002133E-06
   9.92000008      -4.00324598E-06
   10.0799999      -6.28314865E-06
   10.2399998      -9.74261184E-06
   10.3999996      -1.49204579E-05
   10.5600004      -2.25604654E-05
   10.7200003      -3.36681878E-05
   10.8800001      -4.95729546E-05
   11.0400000      -7.19903182E-05
   11.1999998      -1.03078113E-04
   11.3599997      -1.45476020E-04
   11.5200005      -2.02314433E-04
   11.6800003      -2.77175597E-04
   11.8400002      -3.73988063E-04
   12.0000000      -4.96838125E-04
   12.1599998      -6.49684516E-04
   12.3199997      -8.35970044E-04
   12.4799995      -1.05812971E-03
   12.6400003      -1.31701166E-03
   12.8000002      -1.61123718E-03
   12.9600000      -1.93655537E-03
   13.1199999      -2.28525372E-03
   13.2799997      -2.64570769E-03
   13.4399996      -3.00216069E-03
   13.6000004      -3.33481724E-03
   13.7600002      -3.62032955E-03
   13.9200001      -3.83272278E-03
   14.0799999      -3.94477323E-03
   14.2399998      -3.92979663E-03
   14.3999996      -3.76376417E-03
   14.5600004      -3.42759793E-03
   14.7200003      -2.90945778E-03
   14.8800001      -2.20680120E-03
   15.0400000      -1.32797437E-03
   15.1999998      -2.93111516E-04
   15.3599997       8.65837908E-04
   15.5200005       2.10606377E-03
   15.6800003       3.37585085E-03
   15.8400002       4.61745029E-03
   16.0000000       5.77068562E-03
   16.1599998       6.77701645E-03
   16.3199997       7.58371083E-03
   16.4799995       8.14775098E-03
   16.6399994       8.43910314E-03
   16.7999992       8.44302028E-03
   16.9599991       8.16115830E-03
   17.1200008       7.61138462E-03
   17.2800007       6.82630250E-03
   17.4400005       5.85063919E-03
   17.6000004       4.73774970E-03
   17.7600002       3.54560278E-03
   17.9200001       2.33262056E-03
   18.0799999       1.15376641E-03
   18.2399998       5.72060308E-05
   18.3999996      -9.18200007E-04
   18.5599995      -1.74442958E-03
   18.7199993      -2.40482274E-03
   18.8799992      -2.89367442E-03
   19.0400009      -3.21506476E-03
   19.2000008      -3.38114239E-03
   19.3600006      -3.41011048E-03
   19.5200005      -3.32414149E-03
   19.6800003      -3.14740813E-03
   19.8400002      -2.90436554E-03
   20.0000000      -2.61835288E-03
   20.1599998      -2.31052749E-03
   20.3199997      -1.99909648E-03
   20.4799995      -1.69878791E-03
   20.6399994      -1.42051128E-03
   20.7999992      -1.17116084E-03
   20.9599991      -9.53568029E-04
   21.1200008      -7.66620156E-04
   21.2800007      -6.05594891E-04
   21.4400005      -4.62759635E-04
   21.6000004      -3.28273542E-04
   21.7600002      -1.91395506E-04
   21.9200001      -4.19513126E-05
   22.0799999       1.28051659E-04
   22.2399998       3.22833337E-04
   22.3999996       5.41486428E-04
   22.5599995       7.77082227E-04
   22.7199993       1.01644092E-03
   22.8799992       1.24071655E-03
   23.0400009       1.42686011E-03
   23.2000008       1.54991169E-03
   23.3600006       1.58594816E-03
   23.5200005       1.51538954E-03
   23.6800003       1.32628472E-03
   23.8400002       1.01714116E-03
   24.0000000       5.98872255E-04
   24.1599998       9.54833085E-05
   24.3199997      -4.56768583E-04
   24.4799995      -1.01184240E-03
   24.6399994      -1.51791808E-03
   24.7999992      -1.92264956E-03
   24.9599991      -2.17919797E-03
   25.1200008      -2.25243880E-03
   25.2800007      -2.12465902E-03
   25.4400005      -1.80003699E-03
   25.6000004      -1.30729040E-03
   25.7600002      -7.00007891E-04
   25.9200001      -5.44168615E-05
   26.0799999       5.35418920E-04
   26.2399998       9.64698731E-04
   26.3999996       1.12676201E-03
   26.5599995       9.23013664E-04
   26.7199993       2.73017358E-04
   26.8799992      -8.76184320E-04
   27.0400009      -2.54241587E-03
   27.2000008      -4.70315665E-03
   27.3600006      -7.29335239E-03
   27.5200005      -1.02065606E-02
   27.6800003      -1.32994717E-02
   27.8400002      -1.63995568E-02
   28.0000000      -1.93152949E-02
   28.1599998      -2.18482818E-02
   28.3199997      -2.38063242E-02
   28.4799995      -2.50165705E-02
   28.6399994      -2.53377408E-02
   28.7999992      -2.46705431E-02
   28.9599991      -2.29655746E-02
   29.1200008      -2.02281158E-02
   29.2800007      -1.65195353E-02
   29.4400005      -1.19551606E-02
   29.6000004      -6.69877278E-03
   29.7600002      -9.54050978E-04
   29.9200001       5.04645752E-03
   30.0799999       1.10541591E-02
   30.2399998       1.68182254E-02
   30.3999996       2.20995340E-02
   30.5599995       2.66838335E-02
   30.7199993       3.03933434E-02
   30.8799992       3.30960415E-02
   31.0400009       3.47120874E-02
   31.2000008       3.52169983E-02
   31.3600006       3.46414037E-02
   31.5200005       3.30674313E-02
   31.6800003       3.06220166E-02
   31.8400002       2.74676662E-02
