  -8.00000000       0.00000000
  -7.84000015       0.00000000
  -7.67999983       0.00000000
  -7.51999998       0.00000000
  -7.36000013       0.00000000
  -7.19999981      -0.00000000
  -7.03999996       1.67130482E-22
  -6.88000011      -2.40283205E-21
  -6.71999979      -9.44883890E-21
  -6.55999994      -3.82700684E-21
  -6.40000010      -3.65901123E-21
  -6.23999977      -1.50885667E-19
  -6.07999992      -3.42867501E-19
  -5.92000008       4.13156941E-19
  -5.76000023       2.49669744E-18
  -5.59999990       1.45321603E-18
  -5.44000006      -9.71682200E-18
  -5.28000021      -2.21151369E-17
  -5.11999989       1.19338619E-18
  -4.96000004       7.90158126E-17
  -4.80000019       1.21069728E-16
  -4.63999987      -4.95996355E-17
  -4.48000002      -4.25728924E-16
  -4.32000017      -5.39215616E-16
  -4.15999985       2.33036737E-16
  -4.00000000       1.65718883E-15
  -3.83999991       2.03213495E-15
  -3.68000007      -4.93987497E-16
  -3.51999998      -5.04653971E-15
  -3.35999990      -6.81414374E-15
  -3.20000005      -6.64395862E-16
  -3.03999996       1.20227611E-14
  -2.88000011       2.02249868E-14
  -2.72000003       9.96222470E-15
  -2.55999994      -2.12666053E-14
  -2.40000010      -5.33821271E-14
  -2.24000001      -4.92502496E-14
  -2.07999992       1.73577024E-14
  -1.91999996       1.22451908E-13
  -1.75999999       1.74639410E-13
  -1.60000002       6.29413378E-14
  -1.44000006      -2.24391374E-13
  -1.27999997      -4.93838098E-13
  -1.12000000      -4.05350368E-13
 -0.959999979       2.31857122E-13
 -0.800000012       1.10715094E-12
 -0.639999986       1.39833891E-12
 -0.479999989       3.61986022E-13
 -0.319999993      -1.77706352E-12
 -0.159999996      -3.47211474E-12
   0.00000000      -2.72286273E-12
  0.159999996       1.13731810E-12
  0.319999993       6.12580212E-12
  0.479999989       8.23424228E-12
  0.639999986       4.14098790E-12
  0.800000012      -5.64811002E-12
  0.959999979      -1.56881608E-11
   1.12000000      -1.79688001E-11
   1.27999997      -7.02124036E-12
   1.44000006       1.50035852E-11
   1.60000002       3.67069534E-11
   1.75999999       4.15737340E-11
   1.91999996       1.74593760E-11
   2.07999992      -3.25654434E-11
   2.24000001      -8.48696668E-11
   2.40000010      -1.02000519E-10
   2.55999994      -5.29062037E-11
   2.72000003       6.10868439E-11
   2.88000011       1.90630581E-10
   3.03999996       2.49905124E-10
   3.20000005       1.60691030E-10
   3.35999990      -8.73016243E-11
   3.51999998      -3.96404687E-10
   3.68000007      -5.80266835E-10
   3.83999991      -4.55211230E-10
   4.00000000       3.12508283E-11
   4.15999985       7.10920545E-10
   4.32000017       1.22127541E-09
   4.48000002       1.17028276E-09
   4.63999987       3.75911524E-10
   4.80000019      -9.50341472E-10
   4.96000004      -2.20596363E-09
   5.11999989      -2.63543809E-09
   5.28000021      -1.72584058E-09
   5.44000006       4.29201896E-10
   5.59999990       3.01704728E-09
   5.76000023       4.77686601E-09
   5.92000008       4.59362193E-09
   6.07999992       2.14260920E-09
   6.23999977      -1.78930837E-09
   6.40000010      -5.56363933E-09
   6.55999994      -7.47174678E-09
   6.71999979      -6.63200073E-09
   6.88000011      -3.46334716E-09
   7.03999996       5.90750504E-10
   7.19999981       3.95608701E-09
   7.36000013       5.89841287E-09
   7.51999998       6.95199676E-09
   7.67999983       8.49980353E-09
   7.84000015       1.16971872E-08
   8.00000000       1.62925815E-08
   8.15999985       1.99078745E-08
   8.31999969       1.80161184E-08
   8.47999954       4.39516556E-09
   8.64000034      -2.85187216E-08
   8.80000019      -9.00814072E-08
   8.96000004      -1.93319536E-07
   9.11999989      -3.58697065E-07
   9.27999973      -6.20097239E-07
   9.43999958      -1.03331990E-06
   9.60000038      -1.68752115E-06
   9.76000023      -2.72032503E-06
   9.92000008      -4.33783316E-06
   10.0799999      -6.84132101E-06
   10.2399998      -1.06627649E-05
   10.3999996      -1.64111680E-05
   10.5600004      -2.49306086E-05
   10.7200003      -3.73691328E-05
   10.8800001      -5.52555284E-05
   11.0400000      -8.05786403E-05
   11.1999998      -1.15861090E-04
   11.3599997      -1.64216181E-04
   11.5200005      -2.29372366E-04
   11.6800003      -3.15646001E-04
   11.8400002      -4.27839550E-04
   12.0000000      -5.71043754E-04
   12.1599998      -7.50324398E-04
   12.3199997      -9.70284396E-04
   12.4799995      -1.23450183E-03
   12.6400003      -1.54486182E-03
   12.8000002      -1.90081645E-03
   12.9600000      -2.29862891E-03
   13.1199999      -2.73067760E-03
   13.2799997      -3.18491133E-03
   13.4399996      -3.64455534E-03
   13.6000004      -4.08816990E-03
   13.7600002      -4.49014641E-03
   13.9200001      -4.82168188E-03
   14.0799999      -5.05226199E-03
   14.2399998      -5.15158102E-03
   14.3999996      -5.09181432E-03
   14.5600004      -4.85006627E-03
   14.7200003      -4.41079261E-03
   14.8800001      -3.76795605E-03
   15.0400000      -2.92667747E-03
   15.1999998      -1.90415489E-03
   15.3599997      -7.29700201E-04
   15.5200005       5.56205981E-04
   15.6800003       1.90382835E-03
   15.8400002       3.25695565E-03
   16.0000000       4.55632852E-03
   16.1599998       5.74344629E-03
   16.3199997       6.76439749E-03
   16.4799995       7.57339876E-03
   16.6399994       8.13570712E-03
   16.7999992       8.42967164E-03
   16.9599991       8.44777189E-03
   17.1200008       8.19658488E-03
   17.2800007       7.69577082E-03
   17.4400005       6.97620399E-03
   17.6000004       6.07751077E-03
   17.7600002       5.04525518E-03
   17.9200001       3.92804993E-03
   18.0799999       2.77481182E-03
   18.2399998       1.63233595E-03
   18.3999996       5.43288945E-04
   18.5599995      -4.55333036E-04
   18.7199993      -1.33330410E-03
   18.8799992      -2.06787279E-03
   19.0400009      -2.64413888E-03
   19.2000008      -3.05515877E-03
   19.3600006      -3.30180954E-03
   19.5200005      -3.39241675E-03
   19.6800003      -3.34213208E-03
   19.8400002      -3.17202974E-03
   20.0000000      -2.90791364E-03
   20.1599998      -2.57883384E-03
   20.3199997      -2.21535843E-03
   20.4799995      -1.84768753E-03
   20.6399994      -1.50373310E-03
   20.7999992      -1.20733213E-03
   20.9599991      -9.76752955E-04
   21.1200008      -8.23641079E-04
   21.2800007      -7.52513122E-04
   21.4400005      -7.60851311E-04
   21.6000004      -8.39780492E-04
   21.7600002      -9.75248113E-04
   21.9200001      -1.14956475E-03
   22.0799999      -1.34312944E-03
   22.2399998      -1.53615198E-03
   22.3999996      -1.71020220E-03
   22.5599995      -1.84944773E-03
   22.7199993      -1.94149523E-03
   22.8799992      -1.97780295E-03
   23.0400009      -1.95369031E-03
   23.2000008      -1.86800747E-03
   23.3600006      -1.72256224E-03
   23.5200005      -1.52140541E-03
   23.6800003      -1.27006520E-03
   23.8400002      -9.74806782E-04
   24.0000000      -6.41971244E-04
   24.1599998      -2.77424522E-04
   24.3199997       1.13867209E-04
   24.4799995       5.28128759E-04
   24.6399994       9.62927355E-04
   24.7999992       1.41716970E-03
   24.9599991       1.89092581E-03
   25.1200008       2.38506123E-03
   25.2800007       2.90066795E-03
   25.4400005       3.43829952E-03
   25.6000004       3.99705162E-03
   25.7600002       4.57355333E-03
   25.9200001       5.16098086E-03
   26.0799999       5.74820535E-03
   26.2399998       6.31923182E-03
   26.3999996       6.85304357E-03
   26.5599995       7.32396357E-03
   26.7199993       7.70259043E-03
   26.8799992       7.95731135E-03
   27.0400009       8.05632584E-03
   27.2000008       7.97004718E-03
   27.3600006       7.67368078E-03
   27.5200005       7.14976620E-03
   27.6800003       6.39042584E-03
   27.8400002       5.39910421E-03
   28.0000000       4.19158116E-03
   28.1599998       2.79613282E-03
   28.3199997       1.25273655E-03
   28.4799995      -3.88647546E-04
   28.6399994      -2.07063975E-03
   28.7999992      -3.73166916E-03
   28.9599991      -5.30963065E-03
   29.1200008      -6.74568489E-03
   29.2800007      -7.98788760E-03
   29.4400005      -8.99435394E-03
   29.6000004      -9.73566249E-03
   29.7600002      -1.01963170E-02
   29.9200001      -1.03751272E-02
   30.0799999      -1.02844872E-02
   30.2399998      -9.94862802E-03
   30.3999996      -9.40103922E-03
   30.5599995      -8.68131407E-03
   30.7199993      -7.83175323E-03
   30.8799992      -6.89407904E-03
   31.0400009      -5.90656325E-03
   31.2000008      -4.90186457E-03
   31.3600006      -3.90573917E-03
   31.5200005      -2.93671247E-03
   31.6800003      -2.00667162E-03
   31.8400002      -1.12221402E-03
