  -8.00000000       0.00000000
  -7.84000015       0.00000000
  -7.67999983       0.00000000
  -7.51999998       0.00000000
  -7.36000013       0.00000000
  -7.19999981      -1.42585251E-16
  -7.03999996      -3.50170753E-16
  -6.88000011       1.53274498E-15
  -6.71999979       9.70945567E-15
  -6.55999994       2.03134374E-14
  -6.40000010       5.33647105E-15
  -6.23999977      -7.43143340E-14
  -6.07999992      -1.92107520E-13
  -5.92000008      -1.71307819E-13
  -5.76000023       2.33163261E-13
  -5.59999990       9.77717798E-13
  -5.44000006       1.35585857E-12
  -5.28000021       2.21030442E-13
  -5.11999989      -2.85185135E-12
  -4.96000004      -6.19144363E-12
  -4.80000019      -6.10621406E-12
  -4.63999987       5.18528363E-13
  -4.48000002       1.23613420E-11
  -4.32000017       2.19410844E-11
  -4.15999985       1.88457670E-11
  -4.00000000      -2.87416445E-12
  -3.83999991      -3.77503410E-11
  -3.68000007      -6.76841916E-11
  -3.51999998      -6.88886448E-11
  -3.35999990      -2.52214794E-11
  -3.20000005       5.73598807E-11
  -3.03999996       1.43284343E-10
  -2.88000011       1.75936765E-10
  -2.72000003       1.06495202E-10
  -2.55999994      -6.68465006E-11
  -2.40000010      -2.75401535E-10
  -2.24000001      -3.99845490E-10
  -2.07999992      -3.36206007E-10
  -1.91999996      -7.18805918E-11
  -1.75999999       2.84564650E-10
  -1.60000002       5.52505153E-10
  -1.44000006       5.84139959E-10
  -1.27999997       3.57247676E-10
  -1.12000000      -8.19339995E-12
 -0.959999979      -3.23081978E-10
 -0.800000012      -4.46355286E-10
 -0.639999986      -3.72028658E-10
 -0.479999989      -2.27782307E-10
 -0.319999993      -1.77029821E-10
 -0.159999996      -2.79367002E-10
   0.00000000      -4.08255235E-10
  0.159999996      -3.10328013E-10
  0.319999993       1.99850733E-10
  0.479999989       1.03646092E-09
  0.639999986       1.80545634E-09
  0.800000012       2.01021333E-09
  0.959999979       1.38110001E-09
   1.12000000       8.23377200E-11
   1.27999997      -1.37799827E-09
   1.44000006      -2.47653853E-09
   1.60000002      -2.98820702E-09
   1.75999999      -3.04572145E-09
   1.91999996      -2.91244517E-09
   2.07999992      -2.65209721E-09
   2.24000001      -1.93965888E-09
   2.40000010      -1.54408097E-10
   2.55999994       3.26456928E-09
   2.72000003       8.34774827E-09
   2.88000011       1.42288021E-08
   3.03999996       1.90908036E-08
   3.20000005       2.04702353E-08
   3.35999990       1.56393067E-08
   3.51999998       1.47459300E-09
   3.68000007      -2.67873581E-08
   3.83999991      -7.80989424E-08
   4.00000000      -1.69099195E-07
   4.15999985      -3.28048941E-07
   4.32000017      -5.99231669E-07
   4.48000002      -1.04883600E-06
   4.63999987      -1.77411880E-06
   4.80000019      -2.91780634E-06
   4.96000004      -4.68938924E-06
   5.11999989      -7.39484585E-06
   5.28000021      -1.14771183E-05
   5.44000006      -1.75710538E-05
   5.59999990      -2.65779418E-05
   5.76000023      -3.97647855E-05
   5.92000008      -5.88918447E-05
   6.07999992      -8.63682872E-05
   6.23999977      -1.25430888E-04
   6.40000010      -1.80334406E-04
   6.55999994      -2.56534782E-04
   6.71999979      -3.60838370E-04
   6.88000011      -5.01480710E-04
   7.03999996      -6.88090571E-04
   7.19999981      -9.31490387E-04
   7.36000013      -1.24328362E-03
   7.51999998      -1.63518870E-03
   7.67999983      -2.11809343E-03
   7.84000015      -2.70082825E-03
   8.00000000      -3.38869332E-03
   8.15999985      -4.18180414E-03
   8.31999969      -5.07337833E-03
   8.47999954      -6.04810612E-03
   8.64000034      -7.08081014E-03
   8.80000019      -8.13559443E-03
   8.96000004      -9.16569773E-03
   9.11999989      -1.01142414E-02
   9.27999973      -1.09160217E-02
   9.43999958      -1.15004061E-02
   9.60000038      -1.17952963E-02
   9.76000023      -1.17320204E-02
   9.92000008      -1.12508591E-02
   10.0799999      -1.03068352E-02
   10.2399998      -8.87526758E-03
   10.3999996      -6.95657358E-03
   10.5600004      -4.57974151E-03
   10.7200003      -1.80401048E-03
   10.8800001       1.28165935E-03
   11.0400000       4.56153275E-03
   11.1999998       7.89846294E-03
   11.3599997       1.11414548E-02
   11.5200005       1.41349612E-02
   11.6800003       1.67292338E-02
   11.8400002       1.87908933E-02
   12.0000000       2.02128086E-02
   12.1599998       2.09223628E-02
   12.3199997       2.08872780E-02
   12.4799995       2.01184228E-02
   12.6400003       1.86692420E-02
   12.8000002       1.66317616E-02
   12.9600000       1.41295092E-02
   13.1199999       1.13079604E-02
   13.2799997       8.32337700E-03
   13.4399996       5.33109903E-03
   13.6000004       2.47434201E-03
   13.7600002      -1.25447870E-04
   13.9200001      -2.37584137E-03
   14.0799999      -4.21768893E-03
   14.2399998      -5.62612759E-03
   14.3999996      -6.60842890E-03
   14.5600004      -7.19910301E-03
   14.7200003      -7.45294802E-03
   14.8800001      -7.43692415E-03
   15.0400000      -7.22179702E-03
   15.1999998      -6.87446957E-03
   15.3599997      -6.45178929E-03
   15.5200005      -5.99640794E-03
   15.6800003      -5.53497858E-03
   15.8400002      -5.07870037E-03
   16.0000000      -4.62592393E-03
   16.1599998      -4.16632043E-03
   16.3199997      -3.68595449E-03
   16.4799995      -3.17252055E-03
   16.6399994      -2.62003113E-03
   16.7999992      -2.03234213E-03
   16.9599991      -1.42506568E-03
   17.1200008      -8.25642608E-04
   17.2800007      -2.71574623E-04
   17.4400005       1.92982217E-04
   17.6000004       5.21862181E-04
   17.7600002       6.72242371E-04
   17.9200001       6.10094168E-04
   18.0799999       3.15114186E-04
   18.2399998      -2.15415261E-04
   18.3999996      -9.64270497E-04
   18.5599995      -1.89371232E-03
   18.7199993      -2.94679753E-03
   18.8799992      -4.05050488E-03
   19.0400009      -5.12043433E-03
   19.2000008      -6.06668601E-03
   19.3600006      -6.80042850E-03
   19.5200005      -7.24059995E-03
   19.6800003      -7.32018379E-03
   19.8400002      -6.99155917E-03
   20.0000000      -6.23049866E-03
   20.1599998      -5.03850821E-03
   20.3199997      -3.44333216E-03
   20.4799995      -1.49760093E-03
   20.6399994       7.24255049E-04
   20.7999992       3.13057448E-03
   20.9599991       5.61814243E-03
   21.1200008       8.07853602E-03
   21.2800007       1.04046650E-02
   21.4400005       1.24970358E-02
   21.6000004       1.42692896E-02
   21.7600002       1.56526659E-02
   21.9200001       1.65991038E-02
   22.0799999       1.70828383E-02
   22.2399998       1.71004441E-02
   22.3999996       1.66694373E-02
   22.5599995       1.58256553E-02
   22.7199993       1.46196820E-02
   22.8799992       1.31127313E-02
   23.0400009       1.13723148E-02
   23.2000008       9.46807396E-03
   23.3600006       7.46808061E-03
   23.5200005       5.43585839E-03
   23.6800003       3.42824380E-03
   23.8400002       1.49414758E-03
   24.0000000      -3.25871952E-04
   24.1599998      -1.99936936E-03
   24.3199997      -3.50131420E-03
   24.4799995      -4.81316028E-03
   24.6399994      -5.92189515E-03
   24.7999992      -6.81923702E-03
   24.9599991      -7.50109553E-03
   25.1200008      -7.96734169E-03
   25.2800007      -8.22186098E-03
   25.4400005      -8.27280711E-03
   25.6000004      -8.13292712E-03
   25.7600002      -7.81980436E-03
   25.9200001      -7.35589676E-03
   26.0799999      -6.76827412E-03
   26.2399998      -6.08800957E-03
   26.3999996      -5.34920907E-03
   26.5599995      -4.58773971E-03
   26.7199993      -3.83973517E-03
   26.8799992      -3.13999830E-03
   27.0400009      -2.52041616E-03
   27.2000008      -2.00849981E-03
   27.3600006      -1.62613194E-03
   27.5200005      -1.38858717E-03
   27.6800003      -1.30386418E-03
   27.8400002      -1.37234118E-03
   28.0000000      -1.58674375E-03
   28.1599998      -1.93239807E-03
   28.3199997      -2.38774344E-03
   28.4799995      -2.92509538E-03
   28.6399994      -3.51165398E-03
   28.7999992      -4.11075354E-03
   28.9599991      -4.68334369E-03
   29.1200008      -5.18967025E-03
   29.2800007      -5.59112104E-03
   29.4400005      -5.85218007E-03
   29.6000004      -5.94241451E-03
   29.7600002      -5.83839184E-03
   29.9200001      -5.52539108E-03
   30.0799999      -4.99877753E-03
   30.2399998      -4.26489674E-03
   30.3999996      -3.34137282E-03
   30.5599995      -2.25672894E-03
   30.7199993      -1.04931300E-03
   30.8799992       2.34452615E-04
   31.0400009       1.54242141E-03
   31.2000008       2.81954161E-03
   31.3600006       4.01096791E-03
   31.5200005       5.06525068E-03
   31.6800003       5.93737094E-03
   31.8400002       6.59140153E-03
