  -8.00000000       0.00000000
  -7.84000015       0.00000000
  -7.67999983       0.00000000
  -7.51999998       0.00000000
  -7.36000013       0.00000000
  -7.19999981       5.96632145E-35
  -7.03999996       4.55031176E-19
  -6.88000011       3.13922735E-18
  -6.71999979       8.92424483E-18
  -6.55999994       1.67127459E-17
  -6.40000010       4.69167281E-17
  -6.23999977       1.50787363E-16
  -6.07999992       2.14421930E-16
  -5.92000008      -4.07001660E-16
  -5.76000023      -2.41539725E-15
  -5.59999990      -4.10024848E-15
  -5.44000006       7.57476101E-16
  -5.28000021       1.73259251E-14
  -5.11999989       3.40746040E-14
  -4.96000004       1.51545070E-14
  -4.80000019      -6.76390300E-14
  -4.63999987      -1.66579993E-13
  -4.48000002      -1.33984796E-13
  -4.32000017       1.55751985E-13
  -4.15999985       5.75114392E-13
  -4.00000000       6.62390715E-13
  -3.83999991      -3.76076970E-14
  -3.68000007      -1.33696678E-12
  -3.51999998      -2.12449112E-12
  -3.35999990      -1.07527550E-12
  -3.20000005       1.90454293E-12
  -3.03999996       4.82472395E-12
  -2.88000011       4.65458878E-12
  -2.72000003      -1.61906299E-14
  -2.55999994      -6.87408290E-12
  -2.40000010      -1.06747900E-11
  -2.24000001      -7.03808409E-12
  -2.07999992       3.51204547E-12
  -1.91999996       1.47747266E-11
  -1.75999999       1.85510201E-11
  -1.60000002       1.04096081E-11
  -1.44000006      -6.60466994E-12
  -1.27999997      -2.30830043E-11
  -1.12000000      -2.86302180E-11
 -0.959999979      -1.81821763E-11
 -0.800000012       4.55626292E-12
 -0.639999986       2.85561835E-11
 -0.479999989       4.09691031E-11
 -0.319999993       3.37313788E-11
 -0.159999996       7.97693508E-12
   0.00000000      -2.57120436E-11
  0.159999996      -5.13648291E-11
  0.319999993      -5.47237741E-11
  0.479999989      -3.09420371E-11
  0.639999986       1.08009539E-11
  0.800000012       4.96045323E-11
  0.959999979       6.31157904E-11
   1.12000000       4.14267232E-11
   1.27999997      -3.80002019E-12
   1.44000006      -4.21564728E-11
   1.60000002      -4.04158165E-11
   1.75999999       1.40873346E-11
   1.91999996       9.36017167E-11
   2.07999992       1.28924066E-10
   2.24000001       4.19989737E-11
   2.40000010      -1.88914245E-10
   2.55999994      -4.66813033E-10
   2.72000003      -5.79907178E-10
   2.88000011      -3.15129062E-10
   3.03999996       3.59309499E-10
   3.20000005       1.17434606E-09
   3.35999990       1.63799108E-09
   3.51999998       1.31675459E-09
   3.68000007       1.51013729E-10
   3.83999991      -1.43005707E-09
   4.00000000      -2.70093858E-09
   4.15999985      -3.02039549E-09
   4.32000017      -2.15036611E-09
   4.48000002      -3.34756334E-10
   4.63999987       1.85157734E-09
   4.80000019       3.74773590E-09
   4.96000004       4.82857887E-09
   5.11999989       4.86323959E-09
   5.28000021       3.98017708E-09
   5.44000006       2.55733990E-09
   5.59999990       8.72843353E-10
   5.76000023      -1.39280454E-09
   5.92000008      -5.54156454E-09
   6.07999992      -1.39008032E-08
   6.23999977      -2.95986524E-08
   6.40000010      -5.65142955E-08
   6.55999994      -9.99541712E-08
   6.71999979      -1.68319602E-07
   6.88000011      -2.75556346E-07
   7.03999996      -4.43913933E-07
   7.19999981      -7.06753610E-07
   7.36000013      -1.11173074E-06
   7.51999998      -1.72520572E-06
   7.67999983      -2.63882498E-06
   7.84000015      -3.97867825E-06
   8.00000000      -5.91668186E-06
   8.15999985      -8.68325697E-06
   8.31999969      -1.25803072E-05
   8.47999954      -1.79935232E-05
   8.64000034      -2.54029255E-05
   8.80000019      -3.53895521E-05
   8.96000004      -4.86351164E-05
   9.11999989      -6.59101934E-05
   9.27999973      -8.80468069E-05
   9.43999958      -1.15891795E-04
   9.60000038      -1.50238790E-04
   9.76000023      -1.91738378E-04
   9.92000008      -2.40788708E-04
   10.0799999      -2.97411403E-04
   10.2399998      -3.61122307E-04
   10.3999996      -4.30810556E-04
   10.5600004      -5.04643423E-04
   10.7200003      -5.80012915E-04
   10.8800001      -6.53541530E-04
   11.0400000      -7.21159740E-04
   11.1999998      -7.78265588E-04
   11.3599997      -8.19965615E-04
   11.5200005      -8.41389759E-04
   11.6800003      -8.38059234E-04
   11.8400002      -8.06279946E-04
   12.0000000      -7.43525219E-04
   12.1599998      -6.48770947E-04
   12.3199997      -5.22745657E-04
   12.4799995      -3.68060428E-04
   12.6400003      -1.89195882E-04
   12.8000002       7.66439553E-06
   12.9600000       2.14947140E-04
   13.1199999       4.24127240E-04
   13.2799997       6.26253546E-04
   13.4399996       8.12518527E-04
   13.6000004       9.74821160E-04
   13.7600002       1.10627862E-03
   13.9200001       1.20164279E-03
   14.0799999       1.25759188E-03
   14.2399998       1.27287582E-03
   14.3999996       1.24830939E-03
   14.5600004       1.18662533E-03
   14.7200003       1.09220506E-03
   14.8800001       9.70718509E-04
   15.0400000       8.28710326E-04
   15.1999998       6.73160830E-04
   15.3599997       5.11057791E-04
   15.5200005       3.49005801E-04
   15.6800003       1.92895983E-04
   15.8400002       4.76537170E-05
   16.0000000      -8.29252895E-05
   16.1599998      -1.96245644E-04
   16.3199997      -2.90889700E-04
   16.4799995      -3.66508233E-04
   16.6399994      -4.23637393E-04
   16.7999992      -4.63460194E-04
   16.9599991      -4.87538084E-04
   17.1200008      -4.97543137E-04
   17.2800007      -4.95024084E-04
   17.4400005      -4.81236872E-04
   17.6000004      -4.57064540E-04
   17.7600002      -4.23040095E-04
   17.9200001      -3.79472243E-04
   18.0799999      -3.26658715E-04
   18.2399998      -2.65156617E-04
   18.3999996      -1.96065041E-04
   18.5599995      -1.21267505E-04
   18.7199993      -4.35810653E-05
   18.8799992       3.32327072E-05
   19.0400009       1.04623628E-04
   19.2000008       1.65582955E-04
   19.3600006       2.11128732E-04
   19.5200005       2.36900494E-04
   19.6800003       2.39794186E-04
   19.8400002       2.18554269E-04
   20.0000000       1.74237139E-04
   20.1599998       1.10471017E-04
   20.3199997       3.34566648E-05
   20.4799995      -4.83199401E-05
   20.6399994      -1.24657978E-04
   20.7999992      -1.84455042E-04
   20.9599991      -2.16690038E-04
   21.1200008      -2.11476334E-04
   21.2800007      -1.61076037E-04
   21.4400005      -6.07678921E-05
   21.6000004       9.05226261E-05
   21.7600002       2.89898744E-04
   21.9200001       5.30507008E-04
   22.0799999       8.01890565E-04
   22.2399998       1.09064323E-03
   22.3999996       1.38129410E-03
   22.5599995       1.65733730E-03
   22.7199993       1.90230494E-03
   22.8799992       2.10079411E-03
   23.0400009       2.23936187E-03
   23.2000008       2.30722991E-03
   23.3600006       2.29676301E-03
   23.5200005       2.20371317E-03
   23.6800003       2.02725059E-03
   23.8400002       1.76981464E-03
   24.0000000       1.43683003E-03
   24.1599998       1.03633897E-03
   24.3199997       5.78594161E-04
   24.4799995       7.56487643E-05
   24.6399994      -4.59030824E-04
   24.7999992      -1.01092563E-03
   24.9599991      -1.56480563E-03
   25.1200008      -2.10506772E-03
   25.2800007      -2.61608604E-03
   25.4400005      -3.08258343E-03
   25.6000004      -3.49002588E-03
   25.7600002      -3.82504100E-03
   25.9200001      -4.07584431E-03
   26.0799999      -4.23265621E-03
   26.2399998      -4.28808527E-03
   26.3999996      -4.23744926E-03
   26.5599995      -4.07901919E-03
   26.7199993      -3.81416781E-03
   26.8799992      -3.44743510E-03
   27.0400009      -2.98651727E-03
   27.2000008      -2.44218647E-03
   27.3600006      -1.82815315E-03
   27.5200005      -1.16087100E-03
   27.6800003      -4.59276052E-04
   27.8400002       2.55554187E-04
   28.0000000       9.60850914E-04
   28.1599998       1.63274840E-03
   28.3199997       2.24705762E-03
   28.4799995       2.78023258E-03
   28.6399994       3.21052363E-03
   28.7999992       3.51927243E-03
   28.9599991       3.69227515E-03
   29.1200008       3.72110470E-03
   29.2800007       3.60425399E-03
   29.4400005       3.34795308E-03
   29.6000004       2.96650967E-03
   29.7600002       2.48206360E-03
   29.9200001       1.92368566E-03
   30.0799999       1.32581394E-03
   30.2399998       7.26093655E-04
   30.3999996       1.62751094E-04
   30.5599995      -3.28291295E-04
   30.7199993      -7.16309471E-04
   30.8799992      -9.78407566E-04
   31.0400009      -1.10160862E-03
   31.2000008      -1.08417729E-03
   31.3600006      -9.36005672E-04
   31.5200005      -6.77981472E-04
   31.6800003      -3.40351806E-04
   31.8400002       3.97990334E-05
