  -8.00000000       0.00000000
  -7.84000015       0.00000000
  -7.67999983       0.00000000
  -7.51999998       0.00000000
  -7.36000013       0.00000000
  -7.19999981       3.67154345E-16
  -7.03999996       2.37385409E-15
  -6.88000011      -2.98499943E-16
  -6.71999979      -3.17773389E-14
  -6.55999994      -7.13875641E-14
  -6.40000010       8.65521440E-14
  -6.23999977       6.82869017E-13
  -6.07999992       1.15303806E-12
  -5.92000008      -4.83589405E-13
  -5.76000023      -5.59302995E-12
  -5.59999990      -1.01118723E-11
  -5.44000006      -3.40017771E-12
  -5.28000021       2.09567225E-11
  -5.11999989       4.74222189E-11
  -4.96000004       3.81392695E-11
  -4.80000019      -3.12613581E-11
  -4.63999987      -1.24498384E-10
  -4.48000002      -1.49380078E-10
  -4.32000017      -4.28563088E-11
  -4.15999985       1.37266754E-10
  -4.00000000       2.37912079E-10
  -3.83999991       1.69019021E-10
  -3.68000007       2.47901023E-11
  -3.51999998      -2.03761851E-11
  -3.35999990       2.63413753E-11
  -3.20000005      -1.03964164E-10
  -3.03999996      -6.16346418E-10
  -2.88000011      -1.20583599E-09
  -2.72000003      -1.10754306E-09
  -2.55999994       1.45799608E-10
  -2.40000010       1.93301708E-09
  -2.24000001       2.73574430E-09
  -2.07999992       1.46776136E-09
  -1.91999996      -1.24863397E-09
  -1.75999999      -3.32998940E-09
  -1.60000002      -3.06265480E-09
  -1.44000006      -7.95320310E-10
  -1.27999997       1.34372924E-09
  -1.12000000       1.58790903E-09
 -0.959999979       3.67399500E-10
 -0.800000012      -1.52076893E-10
 -0.639999986       1.56169999E-09
 -0.479999989       4.58127491E-09
 -0.319999993       6.15974782E-09
 -0.159999996       4.20151336E-09
   0.00000000      -8.87652951E-10
  0.159999996      -6.62760735E-09
  0.319999993      -1.04708535E-08
  0.479999989      -1.13733076E-08
  0.639999986      -9.78297798E-09
  0.800000012      -6.63223387E-09
  0.959999979      -2.56695309E-09
   1.12000000       2.10558704E-09
   1.27999997       7.14101800E-09
   1.44000006       1.21477619E-08
   1.60000002       1.63622360E-08
   1.75999999       1.82815114E-08
   1.91999996       1.54654547E-08
   2.07999992       5.03215825E-09
   2.24000001      -1.50292951E-08
   2.40000010      -4.41849117E-08
   2.55999994      -7.80694123E-08
   2.72000003      -1.08323967E-07
   2.88000011      -1.24061870E-07
   3.03999996      -1.14628861E-07
   3.20000005      -7.19570750E-08
   3.35999990       9.79856374E-09
   3.51999998       1.37897615E-07
   3.68000007       3.25184317E-07
   3.83999991       5.90732554E-07
   4.00000000       9.56530471E-07
   4.15999985       1.44594162E-06
   4.32000017       2.09192194E-06
   4.48000002       2.95724772E-06
   4.63999987       4.15976683E-06
   4.80000019       5.89159117E-06
   4.96000004       8.42743975E-06
   5.11999989       1.21287630E-05
   5.28000021       1.74549677E-05
   5.44000006       2.49867862E-05
   5.59999990       3.54549557E-05
   5.76000023       4.97629262E-05
   5.92000008       6.89965600E-05
   6.07999992       9.44233689E-05
   6.23999977       1.27488500E-04
   6.40000010       1.69807070E-04
   6.55999994       2.23140756E-04
   6.71999979       2.89338554E-04
   6.88000011       3.70218069E-04
   7.03999996       4.67376434E-04
   7.19999981       5.81925502E-04
   7.36000013       7.14166032E-04
   7.51999998       8.63219495E-04
   7.67999983       1.02665450E-03
   7.84000015       1.20015501E-03
   8.00000000       1.37728418E-03
   8.15999985       1.54940865E-03
   8.31999969       1.70585362E-03
   8.47999954       1.83433900E-03
   8.64000034       1.92171999E-03
   8.80000019       1.95501721E-03
   8.96000004       1.92265108E-03
   9.11999989       1.81577564E-03
   9.27999973       1.62954954E-03
   9.43999958       1.36419339E-03
   9.60000038       1.02566439E-03
   9.76000023       6.25814253E-04
   9.92000008       1.81938565E-04
   10.0799999      -2.84308451E-04
   10.2399998      -7.48566410E-04
   10.3999996      -1.18584104E-03
   10.5600004      -1.57276995E-03
   10.7200003      -1.88982149E-03
   10.8800001      -2.12314958E-03
   11.0400000      -2.26585753E-03
   11.1999998      -2.31849938E-03
   11.3599997      -2.28873966E-03
   11.5200005      -2.19018687E-03
   11.6800003      -2.04055477E-03
   11.8400002      -1.85938901E-03
   12.0000000      -1.66565704E-03
   12.1599998      -1.47553021E-03
   12.3199997      -1.30064203E-03
   12.4799995      -1.14704005E-03
   12.6400003      -1.01495488E-03
   12.8000002      -8.99398408E-04
   12.9600000      -7.91465514E-04
   13.1199999      -6.80126774E-04
   13.2799997      -5.54220111E-04
   13.4399996      -4.04351711E-04
   13.6000004      -2.24460047E-04
   13.7600002      -1.28549264E-05
   13.9200001       2.27356169E-04
   14.0799999       4.88467864E-04
   14.2399998       7.58908689E-04
   14.3999996       1.02433737E-03
   14.5600004       1.26890081E-03
   14.7200003       1.47645222E-03
   14.8800001       1.63158844E-03
   15.0400000       1.72043953E-03
   15.1999998       1.73120992E-03
   15.3599997       1.65451493E-03
   15.5200005       1.48360257E-03
   15.6800003       1.21456641E-03
   15.8400002       8.46641487E-04
   16.0000000       3.82634113E-04
   16.1599998      -1.70542204E-04
   16.3199997      -8.01315124E-04
   16.4799995      -1.49303291E-03
   16.6399994      -2.22384231E-03
   16.7999992      -2.96702003E-03
   16.9599991      -3.69185768E-03
   17.1200008      -4.36512148E-03
   17.2800007      -4.95300768E-03
   17.4400005      -5.42343920E-03
   17.6000004      -5.74846053E-03
   17.7600002      -5.90645522E-03
   17.9200001      -5.88392280E-03
   18.0799999      -5.67655731E-03
   18.2399998      -5.28949080E-03
   18.3999996      -4.73667542E-03
   18.5599995      -4.03949199E-03
   18.7199993      -3.22478148E-03
   18.8799992      -2.32255412E-03
   19.0400009      -1.36368687E-03
   19.2000008      -3.77901248E-04
   19.3600006       6.07743277E-04
   19.5200005       1.56970648E-03
   19.6800003       2.48816470E-03
   19.8400002       3.34664877E-03
   20.0000000       4.13128780E-03
   20.1599998       4.82987473E-03
   20.3199997       5.43100061E-03
   20.4799995       5.92348166E-03
   20.6399994       6.29624305E-03
   20.7999992       6.53874129E-03
   20.9599991       6.64186385E-03
   21.1200008       6.59914920E-03
   21.2800007       6.40811678E-03
   21.4400005       6.07148930E-03
   21.6000004       5.59809338E-03
   21.7600002       5.00326324E-03
   21.9200001       4.30862047E-03
   22.0799999       3.54117109E-03
   22.2399998       2.73177959E-03
   22.3999996       1.91317522E-03
   22.5599995       1.11771456E-03
   22.7199993       3.75137141E-04
   22.8799992      -2.89471354E-04
   23.0400009      -8.57314270E-04
   23.2000008      -1.31696637E-03
   23.3600006      -1.66479195E-03
   23.5200005      -1.90467737E-03
   23.6800003      -2.04713340E-03
   23.8400002      -2.10788706E-03
   24.0000000      -2.10611941E-03
   24.1599998      -2.06252350E-03
   24.3199997      -1.99734652E-03
   24.4799995      -1.92859536E-03
   24.6399994      -1.87056733E-03
   24.7999992      -1.83283235E-03
   24.9599991      -1.81974226E-03
   25.1200008      -1.83047645E-03
   25.2800007      -1.85959891E-03
   25.4400005      -1.89805916E-03
   25.6000004      -1.93453208E-03
   25.7600002      -1.95694598E-03
   25.9200001      -1.95401860E-03
   26.0799999      -1.91661867E-03
   26.2399998      -1.83879840E-03
   26.3999996      -1.71837874E-03
   26.5599995      -1.55702361E-03
   26.7199993      -1.35979708E-03
   26.8799992      -1.13426696E-03
   27.0400009      -8.89289542E-04
   27.2000008      -6.33658026E-04
   27.3600006      -3.74814786E-04
   27.5200005      -1.17828480E-04
   27.6800003       1.35193797E-04
   27.8400002       3.85144231E-04
   28.0000000       6.35375676E-04
   28.1599998       8.90654919E-04
   28.3199997       1.15575688E-03
   28.4799995       1.43390067E-03
   28.6399994       1.72525458E-03
   28.7999992       2.02574418E-03
   28.9599991       2.32638046E-03
   29.1200008       2.61326181E-03
   29.2800007       2.86830380E-03
   29.4400005       3.07063339E-03
   29.6000004       3.19849583E-03
   29.7600002       3.23147490E-03
   29.9200001       3.15279211E-03
   30.0799999       2.95142294E-03
   30.2399998       2.62376643E-03
   30.3999996       2.17466429E-03
   30.5599995       1.61764305E-03
   30.7199993       9.74373601E-04
   30.8799992       2.73397483E-04
   31.0400009      -4.51759493E-04
   31.2000008      -1.16493029E-03
   31.3600006      -1.82989147E-03
   31.5200005      -2.41295411E-03
   31.6800003      -2.88533256E-03
   31.8400002      -3.22511350E-03
