  -8.00000000       0.00000000
  -7.84000015       0.00000000
  -7.67999983       0.00000000
  -7.51999998       0.00000000
  -7.36000013       0.00000000
  -7.19999981       5.09758273E-19
  -7.03999996      -4.62385639E-19
  -6.88000011      -3.78333966E-18
  -6.71999979       1.59804197E-17
  -6.55999994       7.18466912E-17
  -6.40000010      -3.61289827E-17
  -6.23999977      -6.89144735E-16
  -6.07999992      -1.42401305E-15
  -5.92000008       2.33891049E-16
  -5.76000023       6.36733725E-15
  -5.59999990       1.12476336E-14
  -5.44000006      -1.30350853E-15
  -5.28000021      -3.92744444E-14
  -5.11999989      -6.82191865E-14
  -4.96000004      -1.15747476E-14
  -4.80000019       1.62152518E-13
  -4.63999987       3.13478573E-13
  -4.48000002       1.49532012E-13
  -4.32000017      -4.72949208E-13
  -4.15999985      -1.14490416E-12
  -4.00000000      -9.37248976E-13
  -3.83999991       7.64366164E-13
  -3.68000007       3.11845883E-12
  -3.51999998       3.71191532E-12
  -3.35999990       4.03538748E-13
  -3.20000005      -5.86237439E-12
  -3.03999996      -1.01270286E-11
  -2.88000011      -6.60829030E-12
  -2.72000003       5.43248779E-12
  -2.55999994       1.84111511E-11
  -2.40000010       2.04947326E-11
  -2.24000001       5.69336548E-12
  -2.07999992      -1.83769042E-11
  -1.91999996      -3.38157939E-11
  -1.75999999      -2.66691981E-11
  -1.60000002      -4.14394728E-13
  -1.44000006       2.51833988E-11
  -1.27999997       3.15672627E-11
  -1.12000000       1.97431255E-11
 -0.959999979       9.43166812E-12
 -0.800000012       1.57516743E-11
 -0.639999986       2.55228443E-11
 -0.479999989       2.83750259E-12
 -0.319999993      -7.09874728E-11
 -0.159999996      -1.57129226E-10
   0.00000000      -1.67103761E-10
  0.159999996      -3.25137070E-11
  0.319999993       2.11646436E-10
  0.479999989       4.10738804E-10
  0.639999986       3.82157195E-10
  0.800000012       6.42577033E-11
  0.959999979      -3.95128319E-10
   1.12000000      -7.02016223E-10
   1.27999997      -6.09877648E-10
   1.44000006      -1.09630673E-10
   1.60000002       5.31698352E-10
   1.75999999       9.25633736E-10
   1.91999996       8.07574174E-10
   2.07999992       2.03316294E-10
   2.24000001      -5.88878668E-10
   2.40000010      -1.16879073E-09
   2.55999994      -1.22962718E-09
   2.72000003      -6.68298916E-10
   2.88000011       4.01689265E-10
   3.03999996       1.67293357E-09
   3.20000005       2.66349209E-09
   3.35999990       2.78262902E-09
   3.51999998       1.53469881E-09
   3.68000007      -1.13748988E-09
   3.83999991      -4.54986360E-09
   4.00000000      -7.30306704E-09
   4.15999985      -7.80261633E-09
   4.32000017      -5.09645171E-09
   4.48000002       4.75408435E-10
   4.63999987       7.33101091E-09
   4.80000019       1.34779681E-08
   4.96000004       1.75894925E-08
   5.11999989       1.94684908E-08
   5.28000021       1.93567420E-08
   5.44000006       1.63261316E-08
   5.59999990       6.62016841E-09
   5.76000023      -1.72801347E-08
   5.92000008      -6.69257076E-08
   6.07999992      -1.58526390E-07
   6.23999977      -3.15343442E-07
   6.40000010      -5.72874001E-07
   6.55999994      -9.87212047E-07
   6.71999979      -1.64674077E-06
   6.88000011      -2.68779399E-06
   7.03999996      -4.31580565E-06
   7.19999981      -6.83432472E-06
   7.36000013      -1.06846510E-05
   7.51999998      -1.64987378E-05
   7.67999983      -2.51671227E-05
   7.84000015      -3.79221019E-05
   8.00000000      -5.64340626E-05
   8.15999985      -8.29166602E-05
   8.31999969      -1.20233679E-04
   8.47999954      -1.71996828E-04
   8.64000034      -2.42638460E-04
   8.80000019      -3.37436679E-04
   8.96000004      -4.62464988E-04
   9.11999989      -6.24435197E-04
   9.27999973      -8.30405159E-04
   9.43999958      -1.08732807E-03
   9.60000038      -1.40142941E-03
   9.76000023      -1.77741202E-03
   9.92000008      -2.21750885E-03
   10.0799999      -2.72043492E-03
   10.2399998      -3.28030414E-03
   10.3999996      -3.88563075E-03
   10.5600004      -4.51852661E-03
   10.7200003      -5.15424646E-03
   10.8800001      -5.76121220E-03
   11.0400000      -6.30164519E-03
   11.1999998      -6.73289597E-03
   11.3599997      -7.00951135E-03
   11.5200005      -7.08599575E-03
   11.6800003      -6.92014815E-03
   11.8400002      -6.47676876E-03
   12.0000000      -5.73144713E-03
   12.1599998      -4.67410311E-03
   12.3199997      -3.31188808E-03
   12.4799995      -1.67109200E-03
   12.6400003       2.02271505E-04
   12.8000002       2.24341359E-03
   12.9600000       4.37135436E-03
   13.1199999       6.49307575E-03
   13.2799997       8.50902218E-03
   13.4399996       1.03195617E-02
   13.6000004       1.18318954E-02
   13.7600002       1.29667986E-02
   13.9200001       1.36645930E-02
   14.0799999       1.38897616E-02
   14.2399998       1.36337355E-02
   14.3999996       1.29155666E-02
   14.5600004       1.17803840E-02
   14.7200003       1.02957664E-02
   14.8800001       8.54636729E-03
   15.0400000       6.62735524E-03
   15.1999998       4.63726930E-03
   15.3599997       2.67100614E-03
   15.5200005       8.13574065E-04
   15.6800003      -8.64826725E-04
   15.8400002      -2.31203297E-03
   16.0000000      -3.49527854E-03
   16.1599998      -4.40074923E-03
   16.3199997      -5.03158988E-03
   16.4799995      -5.40476665E-03
   16.6399994      -5.54730278E-03
   16.7999992      -5.49238315E-03
   16.9599991      -5.27582830E-03
   17.1200008      -4.93327063E-03
   17.2800007      -4.49825823E-03
   17.4400005      -4.00129287E-03
   17.6000004      -3.46968742E-03
   17.7600002      -2.92797876E-03
   17.9200001      -2.39857519E-03
   18.0799999      -1.90230296E-03
   18.2399998      -1.45857770E-03
   18.3999996      -1.08502677E-03
   18.5599995      -7.96528941E-04
   18.7199993      -6.03787659E-04
   18.8799992      -5.11681952E-04
   19.0400009      -5.17725828E-04
   19.2000008      -6.11005933E-04
   19.3600006      -7.71939114E-04
   19.5200005      -9.73101764E-04
   19.6800003      -1.18124089E-03
   19.8400002      -1.36040489E-03
   20.0000000      -1.47595222E-03
   20.1599998      -1.49904331E-03
   20.3199997      -1.41110341E-03
   20.4799995      -1.20769441E-03
   20.6399994      -9.01240681E-04
   20.7999992      -5.22148272E-04
   20.9599991      -1.18001408E-04
   21.1200008       2.49277917E-04
   21.2800007       5.08201483E-04
   21.4400005       5.84093330E-04
   21.6000004       4.06555511E-04
   21.7600002      -8.26488904E-05
   21.9200001      -9.22057021E-04
   22.0799999      -2.12408300E-03
   22.2399998      -3.67040886E-03
   22.3999996      -5.50974533E-03
   22.5599995      -7.55833229E-03
   22.7199993      -9.70329810E-03
   22.8799992      -1.18087530E-02
   23.0400009      -1.37242479E-02
   23.2000008      -1.52949542E-02
   23.3600006      -1.63728260E-02
   23.5200005      -1.68277994E-02
   23.6800003      -1.65581591E-02
   23.8400002      -1.54991811E-02
   24.0000000      -1.36293462E-02
   24.1599998      -1.09736044E-02
   24.3199997      -7.60337850E-03
   24.4799995      -3.63329984E-03
   24.6399994       7.85058131E-04
   24.7999992       5.47195878E-03
   24.9599991       1.02300933E-02
   25.1200008       1.48561681E-02
   25.2800007       1.91526338E-02
   25.4400005       2.29387470E-02
   25.6000004       2.60601733E-02
   25.7600002       2.83965878E-02
   25.9200001       2.98668146E-02
   26.0799999       3.04313954E-02
   26.2399998       3.00925672E-02
   26.3999996       2.88918409E-02
   26.5599995       2.69055869E-02
   26.7199993       2.42390148E-02
   26.8799992       2.10191086E-02
   27.0400009       1.73869953E-02
   27.2000008       1.34902848E-02
   27.3600006       9.47576761E-03
   27.5200005       5.48285758E-03
   27.6800003       1.63800642E-03
   27.8400002      -1.94972230E-03
   28.0000000      -5.19181043E-03
   28.1599998      -8.02216306E-03
   28.3199997      -1.03977304E-02
   28.4799995      -1.22979749E-02
   28.6399994      -1.37232868E-02
   28.7999992      -1.46925300E-02
   28.9599991      -1.52398590E-02
   29.1200008      -1.54110091E-02
   29.2800007      -1.52592873E-02
   29.4400005      -1.48414848E-02
   29.6000004      -1.42139336E-02
   29.7600002      -1.34289460E-02
   29.9200001      -1.25318449E-02
   30.0799999      -1.15587553E-02
   30.2399998      -1.05353324E-02
   30.3999996      -9.47649218E-03
   30.5599995      -8.38717539E-03
   30.7199993      -7.26408232E-03
   30.8799992      -6.09825552E-03
   31.0400009      -4.87829512E-03
   31.2000008      -3.59393051E-03
   31.3600006      -2.23961356E-03
   31.5200005      -8.17774329E-04
   31.6800003       6.58599602E-04
   31.8400002       2.16436479E-03
