  -8.00000000       0.00000000
  -7.84000015       0.00000000
  -7.67999983       0.00000000
  -7.51999998       0.00000000
  -7.36000013       0.00000000
  -7.19999981       0.00000000
  -7.03999996       0.00000000
  -6.88000011      -2.09333505E-27
  -6.71999979      -8.02354248E-26
  -6.55999994      -1.53972692E-24
  -6.40000010      -1.80270100E-23
  -6.23999977      -7.55912773E-23
  -6.07999992      -1.14131197E-22
  -5.92000008       3.88737527E-23
  -5.76000023       1.26107746E-22
  -5.59999990      -5.59931401E-22
  -5.44000006      -1.33305704E-22
  -5.28000021       6.14014351E-21
  -5.11999989       8.87159123E-21
  -4.96000004      -2.68158012E-20
  -4.80000019      -8.76286319E-20
  -4.63999987       1.95015503E-21
  -4.48000002       3.78039919E-19
  -4.32000017       4.96337267E-19
  -4.15999985      -7.66096685E-19
  -4.00000000      -2.76132327E-18
  -3.83999991      -9.59001149E-19
  -3.68000007       7.74956647E-18
  -3.51999998       1.28253212E-17
  -3.35999990      -7.35913143E-18
  -3.20000005      -4.72700004E-17
  -3.03999996      -3.88098188E-17
  -2.88000011       8.37296370E-17
  -2.72000003       2.14964799E-16
  -2.55999994       5.32398059E-17
  -2.40000010      -4.98825379E-16
  -2.24000001      -7.99339063E-16
  -2.07999992       1.94259013E-16
  -1.91999996       2.24318910E-15
  -1.75999999       2.57762544E-15
  -1.60000002      -1.79094296E-15
  -1.44000006      -8.43161922E-15
  -1.27999997      -7.57353757E-15
  -1.12000000       8.20002771E-15
 -0.959999979       2.77898838E-14
 -0.800000012       2.12231034E-14
 -0.639999986      -2.81971220E-14
 -0.479999989      -8.24974990E-14
 -0.319999993      -5.88460148E-14
 -0.159999996       7.92181601E-14
   0.00000000       2.23718830E-13
  0.159999996       1.63935814E-13
  0.319999993      -1.83967791E-13
  0.479999989      -5.55847306E-13
  0.639999986      -4.52947901E-13
  0.800000012       3.36447721E-13
  0.959999979       1.25376825E-12
   1.12000000       1.20072919E-12
   1.27999997      -3.85727664E-13
   1.44000006      -2.50648634E-12
   1.60000002      -2.93567991E-12
   1.75999999      -2.18318554E-13
   1.91999996       4.23659632E-12
   2.07999992       6.36537611E-12
   2.24000001       2.73865110E-12
   2.40000010      -5.44680533E-12
   2.55999994      -1.17329254E-11
   2.72000003      -9.03150124E-12
   2.88000011       3.45620125E-12
   3.03999996       1.73010113E-11
   3.20000005       2.00190992E-11
   3.35999990       5.65298025E-12
   3.51999998      -1.78822009E-11
   3.68000007      -3.24062582E-11
   3.83999991      -2.33119687E-11
   4.00000000       6.73150077E-12
   4.15999985       3.66745974E-11
   4.32000017       4.20833403E-11
   4.48000002       1.57248502E-11
   4.63999987      -2.38582123E-11
   4.80000019      -4.55329663E-11
   4.96000004      -3.18264269E-11
   5.11999989       4.15627342E-12
   5.28000021       2.84969982E-11
   5.44000006       1.76582395E-11
   5.59999990      -1.58779830E-11
   5.76000023      -3.01529218E-11
   5.92000008       7.24000590E-12
   6.07999992       7.92741983E-11
   6.23999977       1.18620336E-10
   6.40000010       5.78820950E-11
   6.55999994      -1.02215757E-10
   6.71999979      -2.65300143E-10
   6.88000011      -2.90243107E-10
   7.03999996      -9.90403246E-11
   7.19999981       2.35627517E-10
   7.36000013       5.04620956E-10
   7.51999998       4.94808972E-10
   7.67999983       1.58557958E-10
   7.84000015      -3.14995807E-10
   8.00000000      -6.10946127E-10
   8.15999985      -5.25101074E-10
   8.31999969      -1.43538306E-10
   8.47999954       2.05422235E-10
   8.64000034       2.24056440E-10
   8.80000019      -6.86346813E-11
   8.96000004      -3.01882908E-10
   9.11999989      -4.88515201E-11
   9.27999973       7.58301810E-10
   9.43999958       1.64830316E-09
   9.60000038       1.86394722E-09
   9.76000023       9.00618136E-10
   9.92000008      -1.06501485E-09
   10.0799999      -3.18374038E-09
   10.2399998      -4.37903847E-09
   10.3999996      -3.91215904E-09
   10.5600004      -1.69666758E-09
   10.7200003       1.78413539E-09
   10.8800001       5.81022519E-09
   11.0400000       9.73233849E-09
   11.1999998       1.30782363E-08
   11.3599997       1.54810138E-08
   11.5200005       1.65573280E-08
   11.6800003       1.57900377E-08
   11.8400002       1.23075781E-08
   12.0000000       4.37909486E-09
   12.1599998      -1.14499539E-08
   12.3199997      -4.14832044E-08
   12.4799995      -9.61680300E-08
   12.6400003      -1.91797980E-07
   12.8000002      -3.53351652E-07
   12.9600000      -6.19440982E-07
   13.1199999      -1.05007291E-06
   13.2799997      -1.73735430E-06
   13.4399996      -2.81894950E-06
   13.6000004      -4.49444678E-06
   13.7600002      -7.04554986E-06
   13.9200001      -1.08613849E-05
   14.0799999      -1.64695721E-05
   14.2399998      -2.45720403E-05
   14.3999996      -3.60827253E-05
   14.5600004      -5.21627044E-05
   14.7200003      -7.42473130E-05
   14.8800001      -1.04058359E-04
   15.0400000      -1.43592348E-04
   15.1999998      -1.95073924E-04
   15.3599997      -2.60862784E-04
   15.5200005      -3.43302934E-04
   15.6800003      -4.44507954E-04
   15.8400002      -5.66080038E-04
   16.0000000      -7.08769076E-04
   16.1599998      -8.72087665E-04
   16.3199997      -1.05390802E-03
   16.4799995      -1.25008018E-03
   16.6399994      -1.45411864E-03
   16.7999992      -1.65701495E-03
   16.9599991      -1.84722943E-03
   17.1200008      -2.01091240E-03
   17.2800007      -2.13239132E-03
   17.4400005      -2.19493918E-03
   17.6000004      -2.18181009E-03
   17.7600002      -2.07750057E-03
   17.9200001      -1.86915335E-03
   18.0799999      -1.54799619E-03
   18.2399998      -1.11068063E-03
   18.3999996      -5.60383720E-04
   18.5599995       9.24652632E-05
   18.7199993       8.29946133E-04
   18.8799992       1.62697677E-03
   19.0400009       2.45224009E-03
   19.2000008       3.26967891E-03
   19.3600006       4.04047081E-03
   19.5200005       4.72534215E-03
   19.6800003       5.28705865E-03
   19.8400002       5.69286849E-03
   20.0000000       5.91672538E-03
   20.1599998       5.94108040E-03
   20.3199997       5.75811416E-03
   20.4799995       5.37032774E-03
   20.6399994       4.79044951E-03
   20.7999992       4.04070597E-03
   20.9599991       3.15153738E-03
   21.1200008       2.15988816E-03
   21.2800007       1.10721379E-03
   21.4400005       3.73577350E-05
   21.6000004      -1.00556621E-03
   21.7600002      -1.97917386E-03
   21.9200001      -2.84460699E-03
   22.0799999      -3.56807676E-03
   22.2399998      -4.12213244E-03
   22.3999996      -4.48664837E-03
   22.5599995      -4.64954507E-03
   22.7199993      -4.60722623E-03
   22.8799992      -4.36474103E-03
   23.0400009      -3.93563649E-03
   23.2000008      -3.34148412E-03
   23.3600006      -2.61105434E-03
   23.5200005      -1.77912484E-03
   23.6800003      -8.84931767E-04
   23.8400002       2.96957533E-05
   24.0000000       9.22442297E-04
   24.1599998       1.75273453E-03
   24.3199997       2.48394324E-03
   24.4799995       3.08539369E-03
   24.6399994       3.53401480E-03
   24.7999992       3.81549075E-03
   24.9599991       3.92480055E-03
   25.1200008       3.86609975E-03
   25.2800007       3.65194585E-03
   25.4400005       3.30195832E-03
   25.6000004       2.84104841E-03
   25.7600002       2.29739118E-03
   25.9200001       1.70035125E-03
   26.0799999       1.07854558E-03
   26.2399998       4.58226277E-04
   26.3999996      -1.37887866E-04
   26.5599995      -6.91264402E-04
   26.7199993      -1.18770765E-03
   26.8799992      -1.61708018E-03
   27.0400009      -1.97271514E-03
   27.2000008      -2.25066720E-03
   27.3600006      -2.44896067E-03
   27.5200005      -2.56698160E-03
   27.6800003      -2.60512182E-03
   27.8400002      -2.56473152E-03
   28.0000000      -2.44835997E-03
   28.1599998      -2.26021279E-03
   28.3199997      -2.00671027E-03
   28.4799995      -1.69700931E-03
   28.6399994      -1.34333607E-03
   28.7999992      -9.60992766E-04
   28.9599991      -5.67937095E-04
   29.1200008      -1.83900149E-04
   29.2800007       1.70920408E-04
   29.4400005       4.77485126E-04
   29.6000004       7.19694071E-04
   29.7600002       8.86119844E-04
   29.9200001       9.71463101E-04
   30.0799999       9.77500458E-04
   30.2399998       9.13329364E-04
   30.3999996       7.94781256E-04
   30.5599995       6.42961764E-04
   30.7199993       4.81974886E-04
   30.8799992       3.35988996E-04
   31.0400009       2.25897049E-04
   31.2000008       1.65906022E-04
   31.3600006       1.60444557E-04
   31.5200005       2.01794086E-04
   31.6800003       2.68809177E-04
   31.8400002       3.27014219E-04
