  -8.00000000       0.00000000
  -7.84000015       0.00000000
  -7.67999983       0.00000000
  -7.51999998       0.00000000
  -7.36000013       0.00000000
  -7.19999981       1.25554263E-17
  -7.03999996       1.41919245E-17
  -6.88000011      -1.26727365E-16
  -6.71999979      -2.16574850E-16
  -6.55999994       1.11312644E-15
  -6.40000010       4.82192606E-15
  -6.23999977       4.82345411E-15
  -6.07999992      -1.54622832E-14
  -5.92000008      -6.28740292E-14
  -5.76000023      -8.91583966E-14
  -5.59999990       1.91413217E-14
  -5.44000006       3.23317951E-13
  -5.28000021       6.11857732E-13
  -5.11999989       3.43093311E-13
  -4.96000004      -9.10706840E-13
  -4.80000019      -2.61668855E-12
  -4.63999987      -2.90439699E-12
  -4.48000002       2.59932158E-13
  -4.32000017       6.47931795E-12
  -4.15999985       1.11498649E-11
  -4.00000000       7.50369732E-12
  -3.83999991      -7.13945222E-12
  -3.68000007      -2.54375791E-11
  -3.51999998      -3.14461443E-11
  -3.35999990      -1.20956118E-11
  -3.20000005       2.82912496E-11
  -3.03999996       6.40693748E-11
  -2.88000011       6.33247899E-11
  -2.72000003       1.42040121E-11
  -2.55999994      -5.89394228E-11
  -2.40000010      -1.07359129E-10
  -2.24000001      -9.32116745E-11
  -2.07999992      -2.09026303E-11
  -1.91999996       6.38427783E-11
  -1.75999999       1.09409801E-10
  -1.60000002       9.87946738E-11
  -1.44000006       5.88242371E-11
  -1.27999997       2.91000713E-11
  -1.12000000       1.97973634E-11
 -0.959999979      -1.05806687E-13
 -0.800000012      -6.98317792E-11
 -0.639999986      -1.87574553E-10
 -0.479999989      -2.91522889E-10
 -0.319999993      -2.92668390E-10
 -0.159999996      -1.35799247E-10
   0.00000000       1.58297001E-10
  0.159999996       4.97351993E-10
  0.319999993       7.55838947E-10
  0.479999989       8.12356238E-10
  0.639999986       5.70216208E-10
  0.800000012      -1.85604206E-11
  0.959999979      -8.97802832E-10
   1.12000000      -1.83480819E-09
   1.27999997      -2.40543940E-09
   1.44000006      -2.12018958E-09
   1.60000002      -6.92748747E-10
   1.75999999       1.67904002E-09
   1.91999996       4.22306723E-09
   2.07999992       5.82369175E-09
   2.24000001       5.50656098E-09
   2.40000010       2.92723268E-09
   2.55999994      -1.41086687E-09
   2.72000003      -6.32003383E-09
   2.88000011      -1.03531823E-08
   3.03999996      -1.22407027E-08
   3.20000005      -1.11432401E-08
   3.35999990      -6.69737377E-09
   3.51999998       1.01433961E-09
   3.68000007       1.14054508E-08
   3.83999991       2.31745556E-08
   4.00000000       3.40257174E-08
   4.15999985       4.04890770E-08
   4.32000017       3.79310592E-08
   4.48000002       2.05989679E-08
   4.63999987      -1.87306863E-08
   4.80000019      -9.00333816E-08
   4.96000004      -2.08627924E-07
   5.11999989      -3.99216106E-07
   5.28000021      -7.01511055E-07
   5.44000006      -1.17803495E-06
   5.59999990      -1.92539505E-06
   5.76000023      -3.09093889E-06
   5.92000008      -4.89693912E-06
   6.07999992      -7.67448182E-06
   6.23999977      -1.19092329E-05
   6.40000010      -1.83014727E-05
   6.55999994      -2.78426560E-05
   6.71999979      -4.19100907E-05
   6.88000011      -6.23795568E-05
   7.03999996      -9.17534635E-05
   7.19999981      -1.33298177E-04
   7.36000013      -1.91179308E-04
   7.51999998      -2.70577177E-04
   7.67999983      -3.77757504E-04
   7.84000015      -5.20065078E-04
   8.00000000      -7.05803919E-04
   8.15999985      -9.43963300E-04
   8.31999969      -1.24375348E-03
   8.47999954      -1.61392021E-03
   8.64000034      -2.06182594E-03
   8.80000019      -2.59230868E-03
   8.96000004      -3.20636225E-03
   9.11999989      -3.89972911E-03
   9.27999973      -4.66151675E-03
   9.43999958      -5.47300139E-03
   9.60000038      -6.30679680E-03
   9.76000023      -7.12657813E-03
   9.92000008      -7.88753759E-03
   10.0799999      -8.53771158E-03
   10.2399998      -9.02023539E-03
   10.3999996      -9.27652605E-03
   10.5600004      -9.25025996E-03
   10.7200003      -8.89191031E-03
   10.8800001      -8.16351175E-03
   11.0400000      -7.04324199E-03
   11.1999998      -5.52936178E-03
   11.3599997      -3.64305894E-03
   11.5200005      -1.42980705E-03
   11.6800003       1.04106124E-03
   11.8400002       3.67870391E-03
   12.0000000       6.37501711E-03
   12.1599998       9.01055336E-03
   12.3199997       1.14617245E-02
   12.4799995       1.36087369E-02
   12.6400003       1.53436344E-02
   12.8000002       1.65777728E-02
   12.9600000       1.72481071E-02
   13.1199999       1.73217189E-02
   13.2799997       1.67982206E-02
   13.4399996       1.57098342E-02
   13.6000004       1.41191212E-02
   13.7600002       1.21146031E-02
   13.9200001       9.80461854E-03
   14.0799999       7.30994716E-03
   14.2399998       4.75578895E-03
   14.3999996       2.26371572E-03
   14.5600004      -5.57900239E-05
   14.7200003      -2.10970314E-03
   14.8800001      -3.82731901E-03
   15.0400000      -5.16334595E-03
   15.1999998      -6.09908951E-03
   15.3599997      -6.64174883E-03
   15.5200005      -6.82196021E-03
   15.6800003      -6.68984652E-03
   15.8400002      -6.30991906E-03
   16.0000000      -5.75523544E-03
   16.1599998      -5.10126166E-03
   16.3199997      -4.41987813E-03
   16.4799995      -3.77396750E-03
   16.6399994      -3.21297697E-03
   16.7999992      -2.76977709E-03
   16.9599991      -2.45905784E-03
   17.1200008      -2.27738824E-03
   17.2800007      -2.20494554E-03
   17.4400005      -2.20877794E-03
   17.6000004      -2.24732654E-03
   17.7600002      -2.27582222E-03
   17.9200001      -2.25205836E-03
   18.0799999      -2.14199652E-03
   18.2399998      -1.92463782E-03
   18.3999996      -1.59563811E-03
   18.5599995      -1.16923195E-03
   18.7199993      -6.78182056E-04
   18.8799992      -1.71654116E-04
   19.0400009       2.88874551E-04
   19.2000008       6.35352160E-04
   19.3600006       8.00034381E-04
   19.5200005       7.22864585E-04
   19.6800003       3.58626887E-04
   19.8400002      -3.16860154E-04
   20.0000000      -1.30217616E-03
   20.1599998      -2.56787916E-03
   20.3199997      -4.05655336E-03
   20.4799995      -5.68541279E-03
   20.6399994      -7.35128298E-03
   20.7999992      -8.93755816E-03
   20.9599991      -1.03225457E-02
   21.1200008      -1.13884667E-02
   21.2800007      -1.20303230E-02
   21.4400005      -1.21638766E-02
   21.6000004      -1.17320595E-02
   21.7600002      -1.07093295E-02
   21.9200001      -9.10365395E-03
   22.0799999      -6.95606647E-03
   22.2399998      -4.33792360E-03
   22.3999996      -1.34619360E-03
   22.5599995       1.90274860E-03
   22.7199993       5.28025161E-03
   22.8799992       8.65285099E-03
   23.0400009       1.18895043E-02
   23.2000008       1.48681197E-02
   23.3600006       1.74810234E-02
   23.5200005       1.96391474E-02
   23.6800003       2.12748274E-02
   23.8400002       2.23432537E-02
   24.0000000       2.28227284E-02
   24.1599998       2.27138661E-02
   24.3199997       2.20380239E-02
   24.4799995       2.08351221E-02
   24.6399994       1.91610996E-02
   24.7999992       1.70851089E-02
   24.9599991       1.46865724E-02
   25.1200008       1.20521812E-02
   25.2800007       9.27278865E-03
   25.4400005       6.44028839E-03
   25.6000004       3.64445429E-03
   25.7600002       9.69796965E-04
   25.9200001      -1.50749623E-03
   26.0799999      -3.72243207E-03
   26.2399998      -5.62375365E-03
   26.3999996      -7.17599783E-03
   26.5599995      -8.36089347E-03
   26.7199993      -9.17794649E-03
   26.8799992      -9.64410603E-03
   27.0400009      -9.79244895E-03
   27.2000008      -9.66990460E-03
   27.3600006      -9.33410134E-03
   27.5200005      -8.84951465E-03
   27.6800003      -8.28315318E-03
   27.8400002      -7.70006562E-03
   28.0000000      -7.15899933E-03
   28.1599998      -6.70852419E-03
   28.3199997      -6.38392149E-03
   28.4799995      -6.20506564E-03
   28.6399994      -6.17547799E-03
   28.7999992      -6.28259731E-03
   28.9599991      -6.49925228E-03
   29.1200008      -6.78619929E-03
   29.2800007      -7.09552038E-03
   29.4400005      -7.37459678E-03
   29.6000004      -7.57034728E-03
   29.7600002      -7.63339316E-03
   29.9200001      -7.52185378E-03
   30.0799999      -7.20449584E-03
   30.2399998      -6.66302489E-03
   30.3999996      -5.89340692E-03
   30.5599995      -4.90615796E-03
   30.7199993      -3.72563675E-03
   30.8799992      -2.38844240E-03
   31.0400009      -9.41075850E-04
   31.2000008       5.62938803E-04
   31.3600006       2.06625578E-03
   31.5200005       3.51100345E-03
   31.6800003       4.84196423E-03
   31.8400002       6.00943994E-03
