  -8.00000000       0.00000000
  -7.84000015       0.00000000
  -7.67999983       0.00000000
  -7.51999998       0.00000000
  -7.36000013       0.00000000
  -7.19999981       0.00000000
  -7.03999996       0.00000000
  -6.88000011      -2.01847208E-25
  -6.71999979      -4.23875514E-24
  -6.55999994      -3.00002004E-23
  -6.40000010      -6.13720910E-23
  -6.23999977       3.91227740E-23
  -6.07999992       1.67172424E-22
  -5.92000008      -1.85103056E-22
  -5.76000023       9.44522726E-22
  -5.59999990       7.82618923E-21
  -5.44000006       5.62116119E-21
  -5.28000021      -4.98006705E-20
  -5.11999989      -1.13594012E-19
  -4.96000004       1.07642519E-19
  -4.80000019       7.40904175E-19
  -4.63999987       6.00183227E-19
  -4.48000002      -2.33876405E-18
  -4.32000017      -5.91664136E-18
  -4.15999985       2.82651829E-19
  -4.00000000       2.21330288E-17
  -3.83999991       3.18726918E-17
  -3.68000007      -2.65926871E-17
  -3.51999998      -1.41721437E-16
  -3.35999990      -1.29370518E-16
  -3.20000005       2.27297824E-16
  -3.03999996       7.10362540E-16
  -2.88000011       4.35816213E-16
  -2.72000003      -1.24532976E-15
  -2.55999994      -2.99545409E-15
  -2.40000010      -1.37121548E-15
  -2.24000001       5.22632076E-15
  -2.07999992       1.10681135E-14
  -1.91999996       4.59193586E-15
  -1.75999999      -1.77999908E-14
  -1.60000002      -3.65570746E-14
  -1.44000006      -1.69834138E-14
  -1.27999997       4.98881603E-14
  -1.12000000       1.08402294E-13
 -0.959999979       6.37982573E-14
 -0.800000012      -1.12041513E-13
 -0.639999986      -2.85620431E-13
 -0.479999989      -2.20929232E-13
 -0.319999993       1.79230383E-13
 -0.159999996       6.50665611E-13
   0.00000000       6.64706571E-13
  0.159999996      -8.92297981E-14
  0.319999993      -1.21202722E-12
  0.479999989      -1.67007532E-12
  0.639999986      -6.18934862E-13
  0.800000012       1.60932509E-12
  0.959999979       3.34363180E-12
   1.12000000       2.70172578E-12
   1.27999997      -6.89057914E-13
   1.44000006      -4.84600511E-12
   1.60000002      -6.46270494E-12
   1.75999999      -3.34545499E-12
   1.91999996       3.50492638E-12
   2.07999992       9.89938947E-12
   2.24000001       1.08928222E-11
   2.40000010       4.23743332E-12
   2.55999994      -7.40884264E-12
   2.72000003      -1.72163516E-11
   2.88000011      -1.78985368E-11
   3.03999996      -6.57352081E-12
   3.20000005       1.21631585E-11
   3.35999990       2.74517388E-11
   3.51999998       2.80092876E-11
   3.68000007       9.88251841E-12
   3.83999991      -1.87903356E-11
   4.00000000      -4.03375285E-11
   4.15999985      -3.78198826E-11
   4.32000017      -7.77927115E-12
   4.48000002       3.33917616E-11
   4.63999987       5.64015848E-11
   4.80000019       3.82093211E-11
   4.96000004      -1.77795313E-11
   5.11999989      -7.61604599E-11
   5.28000021      -8.76991049E-11
   5.44000006      -2.42684779E-11
   5.59999990       9.17267928E-11
   5.76000023       1.87861490E-10
   5.92000008       1.80395129E-10
   6.07999992       3.29371669E-11
   6.23999977      -2.02531145E-10
   6.40000010      -3.96438660E-10
   6.55999994      -4.09554196E-10
   6.71999979      -1.83894233E-10
   6.88000011       2.02112146E-10
   7.03999996       5.60701485E-10
   7.19999981       7.00679903E-10
   7.36000013       5.49136570E-10
   7.51999998       2.01363579E-10
   7.67999983      -1.48904417E-10
   7.84000015      -3.59664187E-10
   8.00000000      -4.59345617E-10
   8.15999985      -6.27725760E-10
   8.31999969      -1.02594522E-09
   8.47999954      -1.58095614E-09
   8.64000034      -1.88311411E-09
   8.80000019      -1.29793409E-09
   8.96000004       7.39853845E-10
   9.11999989       4.40083125E-09
   9.27999973       9.28331634E-09
   9.43999958       1.44831906E-08
   9.60000038       1.88642080E-08
   9.76000023       2.13421298E-08
   9.92000008       2.09374118E-08
   10.0799999       1.64158251E-08
   10.2399998       5.49493961E-09
   10.3999996      -1.62681744E-08
   10.5600004      -5.68205891E-08
   10.7200003      -1.29350056E-07
   10.8800001      -2.54933838E-07
   11.0400000      -4.66870887E-07
   11.1999998      -8.17478337E-07
   11.3599997      -1.38797782E-06
   11.5200005      -2.30200726E-06
   11.6800003      -3.74342676E-06
   11.8400002      -5.97930148E-06
   12.0000000      -9.38899211E-06
   12.1599998      -1.44998203E-05
   12.3199997      -2.20288784E-05
   12.4799995      -3.29292125E-05
   12.6400003      -4.84371049E-05
   12.8000002      -7.01151221E-05
   12.9600000      -9.98834657E-05
   13.1199999      -1.40029559E-04
   13.2799997      -1.93183761E-04
   13.4399996      -2.62247951E-04
   13.6000004      -3.50263843E-04
   13.7600002      -4.60210635E-04
   13.9200001      -5.94724668E-04
   14.0799999      -7.55742367E-04
   14.2399998      -9.44074825E-04
   14.3999996      -1.15893781E-03
   14.5600004      -1.39746955E-03
   14.7200003      -1.65428745E-03
   14.8800001      -1.92113779E-03
   15.0400000      -2.18670582E-03
   15.1999998      -2.43664905E-03
   15.3599997      -2.65390985E-03
   15.5200005      -2.81934859E-03
   15.6800003      -2.91270716E-03
   15.8400002      -2.91388691E-03
   16.0000000      -2.80447933E-03
   16.1599998      -2.56945333E-03
   16.3199997      -2.19886121E-03
   16.4799995      -1.68941147E-03
   16.6399994      -1.04573183E-03
   16.7999992      -2.81156070E-04
   16.9599991       5.82105131E-04
   17.1200008       1.51350384E-03
   17.2800007       2.47543794E-03
   17.4400005       3.42523609E-03
   17.6000004       4.31773020E-03
   17.7600002       5.10822935E-03
   17.9200001       5.75565454E-03
   18.0799999       6.22556312E-03
   18.2399998       6.49278425E-03
   18.3999996       6.54340815E-03
   18.5599995       6.37593679E-03
   18.7199993       6.00147014E-03
   18.8799992       5.44290151E-03
   19.0400009       4.73319413E-03
   19.2000008       3.91289964E-03
   19.3600006       3.02714598E-03
   19.5200005       2.12237705E-03
   19.6800003       1.24313682E-03
   19.8400002       4.29177191E-04
   20.0000000      -2.86876864E-04
   20.1599998      -8.81143671E-04
   20.3199997      -1.33929960E-03
   20.4799995      -1.65659550E-03
   20.6399994      -1.83715590E-03
   20.7999992      -1.89270452E-03
   20.9599991      -1.84089877E-03
   21.1200008      -1.70346943E-03
   21.2800007      -1.50435371E-03
   21.4400005      -1.26798113E-03
   21.6000004      -1.01782789E-03
   21.7600002      -7.75307999E-04
   21.9200001      -5.59014210E-04
   22.0799999      -3.84278741E-04
   22.2399998      -2.62992195E-04
   22.3999996      -2.03601303E-04
   22.5599995      -2.11205319E-04
   22.7199993      -2.87682517E-04
   22.8799992      -4.31796652E-04
   23.0400009      -6.39261911E-04
   23.2000008      -9.02773812E-04
   23.3600006      -1.21204089E-03
   23.5200005      -1.55387074E-03
   23.6800003      -1.91237312E-03
   23.8400002      -2.26933486E-03
   24.0000000      -2.60481518E-03
   24.1599998      -2.89798225E-03
   24.3199997      -3.12818191E-03
   24.4799995      -3.27619794E-03
   24.6399994      -3.32563068E-03
   24.7999992      -3.26427468E-03
   24.9599991      -3.08538391E-03
   25.1200008      -2.78867455E-03
   25.2800007      -2.38093734E-03
   25.4400005      -1.87614199E-03
   25.6000004      -1.29495654E-03
   25.7600002      -6.63647719E-04
   25.9200001      -1.23948184E-05
   26.0799999       6.26890222E-04
   26.2399998       1.22308242E-03
   26.3999996       1.74849317E-03
   26.5599995       2.18140008E-03
   26.7199993       2.50818417E-03
   26.8799992       2.72481237E-03
   27.0400009       2.83743837E-03
   27.2000008       2.86196894E-03
   27.3600006       2.82252952E-03
   27.5200005       2.74887891E-03
   27.6800003       2.67293025E-03
   27.8400002       2.62466655E-03
   28.0000000       2.62782164E-03
   28.1599998       2.69577070E-03
   28.3199997       2.82809883E-03
   28.4799995       3.00829043E-03
   28.6399994       3.20290402E-03
   28.7999992       3.36248917E-03
   28.9599991       3.42433271E-03
   29.1200008       3.31694749E-03
   29.2800007       2.96603749E-03
   29.4400005       2.30149995E-03
   29.6000004       1.26488879E-03
   29.7600002      -1.83317039E-04
   29.9200001      -2.05734232E-03
   30.0799999      -4.34128288E-03
   30.2399998      -6.98635541E-03
   30.3999996      -9.91061237E-03
   30.5599995      -1.30012995E-02
   30.7199993      -1.61197968E-02
   30.8799992      -1.91088878E-02
   31.0400009      -2.18018387E-02
   31.2000008      -2.40326524E-02
   31.3600006      -2.56467368E-02
   31.5200005      -2.65111439E-02
   31.6800003      -2.65236646E-02
   31.8400002      -2.56200451E-02
