  -8.00000000       0.00000000
  -7.84000015       0.00000000
  -7.67999983       0.00000000
  -7.51999998       0.00000000
  -7.36000013       0.00000000
  -7.19999981      -2.00952297E-17
  -7.03999996      -2.83252953E-16
  -6.88000011      -9.52996875E-16
  -6.71999979      -4.95549744E-17
  -6.55999994       7.65600894E-15
  -6.40000010       2.15039914E-14
  -6.23999977       1.71334199E-14
  -6.07999992      -4.54159347E-14
  -5.92000008      -1.51454722E-13
  -5.76000023      -1.54021178E-13
  -5.59999990       1.47601779E-13
  -5.44000006       7.00913123E-13
  -5.28000021       9.44298676E-13
  -5.11999989       1.09915285E-13
  -4.96000004      -1.82944003E-12
  -4.80000019      -3.41386706E-12
  -4.63999987      -2.35938439E-12
  -4.48000002       2.26681369E-12
  -4.32000017       8.11922838E-12
  -4.15999985       1.01982936E-11
  -4.00000000       4.41401776E-12
  -3.83999991      -8.35856211E-12
  -3.68000007      -2.11119559E-11
  -3.51999998      -2.39102609E-11
  -3.35999990      -1.00810272E-11
  -3.20000005       1.77825116E-11
  -3.03999996       4.57989688E-11
  -2.88000011       5.41057303E-11
  -2.72000003       2.95108209E-11
  -2.55999994      -2.15598147E-11
  -2.40000010      -7.20168022E-11
  -2.24000001      -9.09612108E-11
  -2.07999992      -6.70248926E-11
  -1.91999996      -1.54296194E-11
  -1.75999999       4.06491819E-11
  -1.60000002       9.34048741E-11
  -1.44000006       1.45857923E-10
  -1.27999997       1.78563414E-10
  -1.12000000       1.33256128E-10
 -0.959999979      -4.15523276E-11
 -0.800000012      -3.06397768E-10
 -0.639999986      -5.00939346E-10
 -0.479999989      -4.37690523E-10
 -0.319999993      -6.82173762E-11
 -0.159999996       4.29022151E-10
   0.00000000       7.45678352E-10
  0.159999996       6.65453581E-10
  0.319999993       2.27139363E-10
  0.479999989      -3.05067305E-10
  0.639999986      -6.26590002E-10
  0.800000012      -5.80482495E-10
  0.959999979      -2.33477127E-10
   1.12000000       1.67524369E-10
   1.27999997       3.19035465E-10
   1.44000006       3.86494309E-11
   1.60000002      -5.59119584E-10
   1.75999999      -1.02975006E-09
   1.91999996      -8.38570879E-10
   2.07999992       2.09998158E-10
   2.24000001       1.69049097E-09
   2.40000010       2.73124479E-09
   2.55999994       2.57288923E-09
   2.72000003       1.05473319E-09
   2.88000011      -1.37219680E-09
   3.03999996      -4.03400557E-09
   3.20000005      -6.37849196E-09
   3.35999990      -7.98147148E-09
   3.51999998      -8.39692493E-09
   3.68000007      -7.21477056E-09
   3.83999991      -4.31752545E-09
   4.00000000       1.27998154E-10
   4.15999985       6.29091534E-09
   4.32000017       1.55960631E-08
   4.48000002       3.11985247E-08
   4.63999987       5.76893342E-08
   4.80000019       1.00627709E-07
   4.96000004       1.66965378E-07
   5.11999989       2.66856915E-07
   5.28000021       4.16369090E-07
   5.44000006       6.40178712E-07
   5.59999990       9.73810870E-07
   5.76000023       1.46582329E-06
   5.92000008       2.18075093E-06
   6.07999992       3.20338427E-06
   6.23999977       4.64465757E-06
   6.40000010       6.64898607E-06
   6.55999994       9.40248447E-06
   6.71999979       1.31409461E-05
   6.88000011       1.81561354E-05
   7.03999996       2.47988792E-05
   7.19999981       3.34774340E-05
   7.36000013       4.46495469E-05
   7.51999998       5.88051480E-05
   7.67999983       7.64358192E-05
   7.84000015       9.79879478E-05
   8.00000000       1.23799662E-04
   8.15999985       1.54025067E-04
   8.31999969       1.88551581E-04
   8.47999954       2.26918375E-04
   8.64000034       2.68244999E-04
   8.80000019       3.11181677E-04
   8.96000004       3.53894749E-04
   9.11999989       3.94098985E-04
   9.27999973       4.29143634E-04
   9.43999958       4.56156762E-04
   9.60000038       4.72239888E-04
   9.76000023       4.74701665E-04
   9.92000008       4.61311545E-04
   10.0799999       4.30547661E-04
   10.2399998       3.81809921E-04
   10.3999996       3.15569807E-04
   10.5600004       2.33433850E-04
   10.7200003       1.38107163E-04
   10.8800001       3.32528580E-05
   11.0400000      -7.67455203E-05
   11.1999998      -1.87097758E-04
   11.3599997      -2.92963348E-04
   11.5200005      -3.89810797E-04
   11.6800003      -4.73739055E-04
   11.8400002      -5.41726244E-04
   12.0000000      -5.91780990E-04
   12.1599998      -6.22985302E-04
   12.3199997      -6.35430508E-04
   12.4799995      -6.30062073E-04
   12.6400003      -6.08464296E-04
   12.8000002      -5.72621298E-04
   12.9600000      -5.24691714E-04
   13.1199999      -4.66830767E-04
   13.2799997      -4.01083526E-04
   13.4399996      -3.29354196E-04
   13.6000004      -2.53448117E-04
   13.7600002      -1.75162466E-04
   13.9200001      -9.63928760E-05
   14.0799999      -1.92216066E-05
   14.2399998       5.40448891E-05
   14.3999996       1.20912802E-04
   14.5600004       1.78823451E-04
   14.7200003       2.25355499E-04
   14.8800001       2.58480548E-04
   15.0400000       2.76835257E-04
   15.1999998       2.79964966E-04
   15.3599997       2.68495176E-04
   15.5200005       2.44192197E-04
   15.6800003       2.09887556E-04
   15.8400002       1.69258827E-04
   16.0000000       1.26479863E-04
   16.1599998       8.57771665E-05
   16.3199997       5.09446618E-05
   16.4799995       2.48764172E-05
   16.6399994       9.17522721E-06
   16.7999992       3.88968510E-06
   16.9599991       7.41849590E-06
   17.1200008       1.66025875E-05
   17.2800007       2.70015826E-05
   17.4400005       3.33260505E-05
   17.6000004       2.99762287E-05
   17.7600002       1.16278543E-05
   17.9200001      -2.61961850E-05
   18.0799999      -8.66243208E-05
   18.2399998      -1.71052438E-04
   18.3999996      -2.78915046E-04
   18.5599995      -4.07630228E-04
   18.7199993      -5.52715617E-04
   18.8799992      -7.08050269E-04
   19.0400009      -8.66244663E-04
   19.2000008      -1.01907586E-03
   19.3600006      -1.15795212E-03
   19.5200005      -1.27437687E-03
   19.6800003      -1.36038521E-03
   19.8400002      -1.40893878E-03
   20.0000000      -1.41426781E-03
   20.1599998      -1.37216167E-03
   20.3199997      -1.28021208E-03
   20.4799995      -1.13801681E-03
   20.6399994      -9.47335793E-04
   20.7999992      -7.12186156E-04
   20.9599991      -4.38858144E-04
   21.1200008      -1.35826893E-04
   21.2800007       1.86462872E-04
   21.4400005       5.15958585E-04
   21.6000004       8.39515007E-04
   21.7600002       1.14355655E-03
   21.9200001       1.41485187E-03
   22.0799999       1.64135220E-03
   22.2399998       1.81302545E-03
   22.3999996       1.92261476E-03
   22.5599995       1.96623523E-03
   22.7199993       1.94373855E-03
   22.8799992       1.85878656E-03
   23.0400009       1.71860831E-03
   23.2000008       1.53343531E-03
   23.3600006       1.31565891E-03
   23.5200005       1.07877189E-03
   23.6800003       8.36194726E-04
   23.8400002       6.00096362E-04
   24.0000000       3.80329409E-04
   24.1599998       1.83586439E-04
   24.3199997       1.28715265E-05
   24.4799995      -1.32641289E-04
   24.6399994      -2.57334148E-04
   24.7999992      -3.68470646E-04
   24.9599991      -4.75180772E-04
   25.1200008      -5.87207556E-04
   25.2800007      -7.13536632E-04
   25.4400005      -8.61047127E-04
   25.6000004      -1.03332521E-03
   25.7600002      -1.22978131E-03
   25.9200001      -1.44518015E-03
   26.0799999      -1.66966114E-03
   26.2399998      -1.88926421E-03
   26.3999996      -2.08692788E-03
   26.5599995      -2.24388484E-03
   26.7199993      -2.34132889E-03
   26.8799992      -2.36220658E-03
   27.0400009      -2.29295250E-03
   27.2000008      -2.12499709E-03
   27.3600006      -1.85588165E-03
   27.5200005      -1.48987002E-03
   27.6800003      -1.03797519E-03
   27.8400002      -5.17386710E-04
   28.0000000       4.96589382E-05
   28.1599998       6.37468765E-04
   28.3199997       1.21879287E-03
   28.4799995       1.76685385E-03
   28.6399994       2.25731172E-03
   28.7999992       2.66997726E-03
   28.9599991       2.99011520E-03
   29.1200008       3.20921862E-03
   29.2800007       3.32519785E-03
   29.4400005       3.34197818E-03
   29.6000004       3.26857669E-03
   29.7600002       3.11776320E-03
   29.9200001       2.90446682E-03
   30.0799999       2.64411350E-03
   30.2399998       2.35108309E-03
   30.3999996       2.03744369E-03
   30.5599995       1.71209627E-03
   30.7199993       1.38039922E-03
   30.8799992       1.04430330E-03
   31.0400009       7.02970603E-04
   31.2000008       3.53787385E-04
   31.3600006      -6.36794130E-06
   31.5200005      -3.79772653E-04
   31.6800003      -7.66598037E-04
   31.8400002      -1.16389256E-03
