  -8.00000000       0.00000000
  -7.84000015       0.00000000
  -7.67999983       0.00000000
  -7.51999998       0.00000000
  -7.36000013       0.00000000
  -7.19999981       1.42777059E-15
  -7.03999996       1.46185825E-14
  -6.88000011       5.04919965E-14
  -6.71999979       3.53580893E-14
  -6.55999994      -2.92718811E-13
  -6.40000010      -1.13590029E-12
  -6.23999977      -1.75774174E-12
  -6.07999992       1.25332958E-13
  -5.92000008       6.51234752E-12
  -5.76000023       1.42820955E-11
  -5.59999990       1.22338034E-11
  -5.44000006      -1.16006753E-11
  -5.28000021      -5.15062645E-11
  -5.11999989      -7.13059473E-11
  -4.96000004      -2.26620753E-11
  -4.80000019       1.02590776E-10
  -4.63999987       2.28663158E-10
  -4.48000002       2.23609423E-10
  -4.32000017       1.18665407E-11
  -4.15999985      -3.12208648E-10
  -4.00000000      -4.98904695E-10
  -3.83999991      -3.27002925E-10
  -3.68000007       1.75027937E-10
  -3.51999998       6.89430624E-10
  -3.35999990       8.41034298E-10
  -3.20000005       5.26945432E-10
  -3.03999996       3.14269097E-11
  -2.88000011      -2.19779930E-10
  -2.72000003      -6.08949974E-11
  -2.55999994       2.48044918E-10
  -2.40000010       2.81989293E-10
  -2.24000001      -9.17468462E-11
  -2.07999992      -5.12291320E-10
  -1.91999996      -4.12181927E-10
  -1.75999999       4.40168735E-10
  -1.60000002       1.63168357E-09
  -1.44000006       2.32209874E-09
  -1.27999997       1.82847826E-09
  -1.12000000       1.26690936E-10
 -0.959999979      -2.08952833E-09
 -0.800000012      -3.81349130E-09
 -0.639999986      -4.31632730E-09
 -0.479999989      -3.55060958E-09
 -0.319999993      -2.10353157E-09
 -0.159999996      -6.95258240E-10
   0.00000000       4.57331256E-10
  0.159999996       1.89303528E-09
  0.319999993       4.43176251E-09
  0.479999989       8.19849699E-09
  0.639999986       1.19256924E-08
  0.800000012       1.32833424E-08
  0.959999979       1.02334425E-08
   1.12000000       2.51235965E-09
   1.27999997      -7.85937093E-09
   1.44000006      -1.74073076E-08
   1.60000002      -2.27090897E-08
   1.75999999      -2.15025455E-08
   1.91999996      -1.28396032E-08
   2.07999992       3.38520212E-09
   2.24000001       2.67508380E-08
   2.40000010       5.59525617E-08
   2.55999994       8.78618778E-08
   2.72000003       1.16546047E-07
   2.88000011       1.32863022E-07
   3.03999996       1.24995239E-07
   3.20000005       7.97996975E-08
   3.35999990      -1.57334306E-08
   3.51999998      -1.74008122E-07
   3.68000007      -4.08252561E-07
   3.83999991      -7.36081063E-07
   4.00000000      -1.18481773E-06
   4.15999985      -1.79835877E-06
   4.32000017      -2.64615392E-06
   4.48000002      -3.83551651E-06
   4.63999987      -5.52805659E-06
   4.80000019      -7.95996584E-06
   4.96000004      -1.14647710E-05
   5.11999989      -1.64971589E-05
   5.28000021      -2.36572014E-05
   5.44000006      -3.37149031E-05
   5.59999990      -4.76350651E-05
   5.76000023      -6.66021588E-05
   5.92000008      -9.20439925E-05
   6.07999992      -1.25651539E-04
   6.23999977      -1.69388950E-04
   6.40000010      -2.25481694E-04
   6.55999994      -2.96366343E-04
   6.71999979      -3.84584360E-04
   6.88000011      -4.92602354E-04
   7.03999996      -6.22548512E-04
   7.19999981      -7.75862136E-04
   7.36000013      -9.52864997E-04
   7.51999998      -1.15227932E-03
   7.67999983      -1.37073768E-03
   7.84000015      -1.60235108E-03
   8.00000000      -1.83841633E-03
   8.15999985      -2.06735032E-03
   8.31999969      -2.27493141E-03
   8.47999954      -2.44490011E-03
   8.64000034      -2.55994243E-03
   8.80000019      -2.60302424E-03
   8.96000004      -2.55899155E-03
   9.11999989      -2.41629290E-03
   9.27999973      -2.16863514E-03
   9.43999958      -1.81635248E-03
   9.60000038      -1.36728177E-03
   9.76000023      -8.36962310E-04
   9.92000008      -2.48052558E-04
   10.0799999       3.71063798E-04
   10.2399998       9.88399144E-04
   10.3999996       1.57103175E-03
   10.5600004       2.08804081E-03
   10.7200003       2.51337234E-03
   10.8800001       2.82828417E-03
   11.0400000       3.02305445E-03
   11.1999998       3.09772301E-03
   11.3599997       3.06174625E-03
   11.5200005       2.93258019E-03
   11.6800003       2.73336493E-03
   11.8400002       2.48999894E-03
   12.0000000       2.22798670E-03
   12.1599998       1.96947344E-03
   12.3199997       1.73084403E-03
   12.4799995       1.52119179E-03
   12.6400003       1.34182640E-03
   12.8000002       1.18686084E-03
   12.9600000       1.04476104E-03
   13.1199999       9.00610175E-04
   13.2799997       7.38754694E-04
   13.4399996       5.45451883E-04
   13.6000004       3.11166863E-04
   13.7600002       3.22348642E-05
   13.9200001      -2.88281328E-04
   14.0799999      -6.40585611E-04
   14.2399998      -1.00892817E-03
   14.3999996      -1.37300766E-03
   14.5600004      -1.70976541E-03
   14.7200003      -1.99531368E-03
   14.8800001      -2.20675510E-03
   15.0400000      -2.32372154E-03
   15.1999998      -2.32953788E-03
   15.3599997      -2.21199659E-03
   15.5200005      -1.96379074E-03
   15.6800003      -1.58269797E-03
   15.8400002      -1.07161142E-03
   16.0000000      -4.38515475E-04
   16.1599998       3.03540059E-04
   16.3199997       1.13646942E-03
   16.4799995       2.03723833E-03
   16.6399994       2.97810649E-03
   16.7999992       3.92712932E-03
   16.9599991       4.84900828E-03
   17.1200008       5.70633495E-03
   17.2800007       6.46121148E-03
   17.4400005       7.07716774E-03
   17.6000004       7.52123119E-03
   17.7600002       7.76597206E-03
   17.9200001       7.79131427E-03
   18.0799999       7.58593809E-03
   18.2399998       7.14810658E-03
   18.3999996       6.48585428E-03
   18.5599995       5.61651727E-03
   18.7199993       4.56570182E-03
   18.8799992       3.36581538E-03
   19.0400009       2.05433229E-03
   19.2000008       6.71948888E-04
   19.3600006      -7.39217794E-04
   19.5200005      -2.13727797E-03
   19.6800003      -3.48199182E-03
   19.8400002      -4.73596063E-03
   20.0000000      -5.86561300E-03
   20.1599998      -6.84203953E-03
   20.3199997      -7.64171546E-03
   20.4799995      -8.24711937E-03
   20.6399994      -8.64724070E-03
   20.7999992      -8.83793738E-03
   20.9599991      -8.82207789E-03
   21.1200008      -8.60941131E-03
   21.2800007      -8.21608864E-03
   21.4400005      -7.66381947E-03
   21.6000004      -6.97866920E-03
   21.7600002      -6.18959451E-03
   21.9200001      -5.32681681E-03
   22.0799999      -4.42020549E-03
   22.2399998      -3.49781266E-03
   22.3999996      -2.58470816E-03
   22.5599995      -1.70221040E-03
   22.7199993      -8.67559400E-04
   22.8799992      -9.40151585E-05
   23.0400009       6.08702190E-04
   23.2000008       1.23375712E-03
   23.3600006       1.77647977E-03
   23.5200005       2.23373086E-03
   23.6800003       2.60346779E-03
   23.8400002       2.88457237E-03
   24.0000000       3.07694194E-03
   24.1599998       3.18178604E-03
   24.3199997       3.20203067E-03
   24.4799995       3.14272195E-03
   24.6399994       3.01130279E-03
   24.7999992       2.81766290E-03
   24.9599991       2.57389946E-03
   25.1200008       2.29377532E-03
   25.2800007       1.99192786E-03
   25.4400005       1.68293389E-03
   25.6000004       1.38034252E-03
   25.7600002       1.09579449E-03
   25.9200001       8.38324719E-04
   26.0799999       6.13928016E-04
   26.2399998       4.25435632E-04
   26.3999996       2.72697129E-04
   26.5599995       1.53014553E-04
   26.7199993       6.17430924E-05
   26.8799992      -7.03198111E-06
   27.0400009      -5.98134684E-05
   27.2000008      -1.03057449E-04
   27.3600006      -1.42623729E-04
   27.5200005      -1.83339143E-04
   27.6800003      -2.28682242E-04
   27.8400002      -2.80576787E-04
   28.0000000      -3.39272257E-04
   28.1599998      -4.03302140E-04
   28.3199997      -4.69534076E-04
   28.4799995      -5.33341430E-04
   28.6399994      -5.88922878E-04
   28.7999992      -6.29777263E-04
   28.9599991      -6.49320369E-04
   29.1200008      -6.41611638E-04
   29.2800007      -6.02141721E-04
   29.4400005      -5.28603094E-04
   29.6000004      -4.21546138E-04
   29.7600002      -2.84811424E-04
   29.9200001      -1.25641513E-04
   30.0799999       4.55898335E-05
   30.2399998       2.16039931E-04
   30.3999996       3.71405797E-04
   30.5599995       4.97178698E-04
   30.7199993       5.80012857E-04
   30.8799992       6.09060458E-04
   31.0400009       5.77126979E-04
   31.2000008       4.81516763E-04
   31.3600006       3.24464520E-04
   31.5200005       1.13096714E-04
   31.6800003      -1.41064840E-04
   31.8400002      -4.22973826E-04
