  -8.00000000       0.00000000
  -7.84000015       0.00000000
  -7.67999983       0.00000000
  -7.51999998       0.00000000
  -7.36000013       0.00000000
  -7.19999981      -4.86565860E-20
  -7.03999996       4.00289821E-18
  -6.88000011       9.52466877E-18
  -6.71999979      -3.58366968E-17
  -6.55999994      -1.62315799E-16
  -6.40000010      -5.16950527E-17
  -6.23999977       8.88982677E-16
  -6.07999992       1.89031940E-15
  -5.92000008      -9.01463920E-16
  -5.76000023      -1.03666321E-14
  -5.59999990      -1.67012027E-14
  -5.44000006       5.80392058E-15
  -5.28000021       6.73723366E-14
  -5.11999989       1.07425848E-13
  -4.96000004      -1.50883959E-15
  -4.80000019      -3.04652652E-13
  -4.63999987      -5.51567689E-13
  -4.48000002      -2.27577126E-13
  -4.32000017       9.17717508E-13
  -4.15999985       2.14538717E-12
  -4.00000000       1.74071705E-12
  -3.83999991      -1.51189662E-12
  -3.68000007      -6.15306113E-12
  -3.51999998      -7.56869220E-12
  -3.35999990      -1.21706410E-12
  -3.20000005       1.17626950E-11
  -3.03999996       2.17866922E-11
  -2.88000011       1.60267407E-11
  -2.72000003      -9.60610324E-12
  -2.55999994      -4.12215574E-11
  -2.40000010      -5.17569529E-11
  -2.24000001      -2.13280504E-11
  -2.07999992       4.09116976E-11
  -1.91999996       9.42759412E-11
  -1.75999999       9.22221605E-11
  -1.60000002       2.04908989E-11
  -1.44000006      -8.37259775E-11
  -1.27999997      -1.52226176E-10
  -1.12000000      -1.34228670E-10
 -0.959999979      -3.49176764E-11
 -0.800000012       8.81264436E-11
 -0.639999986       1.67454231E-10
 -0.479999989       1.70577580E-10
 -0.319999993       1.10785915E-10
 -0.159999996       2.16401584E-11
   0.00000000      -7.33754446E-11
  0.159999996      -1.64924283E-10
  0.319999993      -2.37471459E-10
  0.479999989      -2.55802463E-10
  0.639999986      -1.82782900E-10
  0.800000012      -1.58935053E-11
  0.959999979       1.96470187E-10
   1.12000000       3.82258197E-10
   1.27999997       4.93894869E-10
   1.44000006       5.25503752E-10
   1.60000002       4.72190342E-10
   1.75999999       2.69401057E-10
   1.91999996      -2.04087733E-10
   2.07999992      -1.00748465E-09
   2.24000001      -1.95827554E-09
   2.40000010      -2.54986743E-09
   2.55999994      -2.11954476E-09
   2.72000003      -2.63360306E-10
   2.88000011       2.72613687E-09
   3.03999996       5.73177372E-09
   3.20000005       7.19291737E-09
   3.35999990       5.87305315E-09
   3.51999998       1.60138325E-09
   3.68000007      -4.45612924E-09
   3.83999991      -1.01797282E-08
   4.00000000      -1.33452742E-08
   4.15999985      -1.25158079E-08
   4.32000017      -7.56473018E-09
   4.48000002       3.73705178E-10
   4.63999987       9.46276835E-09
   4.80000019       1.79385324E-08
   4.96000004       2.46922696E-08
   5.11999989       2.93088505E-08
   5.28000021       3.14635109E-08
   5.44000006       2.99121723E-08
   5.59999990       2.14950742E-08
   5.76000023       4.46746584E-10
   5.92000008      -4.20852331E-08
   6.07999992      -1.18851354E-07
   6.23999977      -2.48492427E-07
   6.40000010      -4.59700232E-07
   6.55999994      -7.98449605E-07
   6.71999979      -1.33887067E-06
   6.88000011      -2.19785466E-06
   7.03999996      -3.55335510E-06
   7.19999981      -5.66708650E-06
   7.36000013      -8.91397212E-06
   7.51999998      -1.38222103E-05
   7.67999983      -2.11279603E-05
   7.84000015      -3.18466737E-05
   8.00000000      -4.73600958E-05
   8.15999985      -6.95148774E-05
   8.31999969      -1.00726757E-04
   8.47999954      -1.44081743E-04
   8.64000034      -2.03421674E-04
   8.80000019      -2.83395348E-04
   8.96000004      -3.89450142E-04
   9.11999989      -5.27733588E-04
   9.27999973      -7.04873411E-04
   9.43999958      -9.27607412E-04
   9.60000038      -1.20224222E-03
   9.76000023      -1.53393787E-03
   9.92000008      -1.92583399E-03
   10.0799999      -2.37806584E-03
   10.2399998      -2.88674678E-03
   10.3999996      -3.44302086E-03
   10.5600004      -4.03231103E-03
   10.7200003      -4.63389605E-03
   10.8800001      -5.22095105E-03
   11.0400000      -5.76115632E-03
   11.1999998      -6.21794676E-03
   11.3599997      -6.55240845E-03
   11.5200005      -6.72574667E-03
   11.6800003      -6.70219120E-03
   11.8400002      -6.45210687E-03
   12.0000000      -5.95504418E-03
   12.1599998      -5.20242844E-03
   12.3199997      -4.19956818E-03
   12.4799995      -2.96673900E-03
   12.6400003      -1.53915188E-03
   12.8000002       3.42935673E-05
   12.9600000       1.69341790E-03
   13.1199999       3.37019097E-03
   13.2799997       4.99290088E-03
   13.4399996       6.49071718E-03
   13.6000004       7.79825030E-03
   13.7600002       8.85971170E-03
   13.9200001       9.63232573E-03
   14.0799999       1.00887278E-02
   14.2399998       1.02181844E-02
   14.3999996       1.00265909E-02
   14.5600004       9.53531917E-03
   14.7200003       8.77908990E-03
   14.8800001       7.80311134E-03
   15.0400000       6.65975688E-03
   15.1999998       5.40507818E-03
   15.3599997       4.09540953E-03
   15.5200005       2.78428243E-03
   15.6800003       1.51982647E-03
   15.8400002       3.42763844E-04
   16.0000000      -7.14939379E-04
   16.1599998      -1.63074012E-03
   16.3199997      -2.39152298E-03
   16.4799995      -2.99298810E-03
   16.6399994      -3.43849789E-03
   16.7999992      -3.73748434E-03
   16.9599991      -3.90355848E-03
   17.1200008      -3.95248830E-03
   17.2800007      -3.90024390E-03
   17.4400005      -3.76133062E-03
   17.6000004      -3.54759884E-03
   17.7600002      -3.26771615E-03
   17.9200001      -2.92738155E-03
   18.0799999      -2.53029750E-03
   18.2399998      -2.07978301E-03
   18.3999996      -1.58080354E-03
   18.5599995      -1.04208721E-03
   18.7199993      -4.77935508E-04
   18.8799992       9.06679124E-05
   19.0400009       6.35994889E-04
   19.2000008       1.12478586E-03
   19.3600006       1.52080192E-03
   19.5200005       1.78857730E-03
   19.6800003       1.89802423E-03
   19.8400002       1.82936189E-03
   20.0000000       1.57772575E-03
   20.1599998       1.15677936E-03
   20.3199997       6.00711850E-04
   20.4799995      -3.58552206E-05
   20.6399994      -6.80297264E-04
   20.7999992      -1.24673313E-03
   20.9599991      -1.64277374E-03
   21.1200008      -1.77769852E-03
   21.2800007      -1.57128740E-03
   21.4400005      -9.62433405E-04
   21.6000004       8.33558006E-05
   21.7600002       1.56836049E-03
   21.9200001       3.45958048E-03
   22.0799999       5.68856066E-03
   22.2399998       8.15419201E-03
   22.3999996       1.07282847E-02
   22.5599995       1.32634528E-02
   22.7199993       1.56026622E-02
   22.8799992       1.75896529E-02
   23.0400009       1.90794226E-02
   23.2000008       1.99479833E-02
   23.3600006       2.01006401E-02
   23.5200005       1.94783136E-02
   23.6800003       1.80614907E-02
   23.8400002       1.58716403E-02
   24.0000000       1.29701467E-02
   24.1599998       9.45488270E-03
   24.3199997       5.45477681E-03
   24.4799995       1.12278678E-03
   24.6399994      -3.37225501E-03
   24.7999992      -7.85438623E-03
   24.9599991      -1.21493554E-02
   25.1200008      -1.60930753E-02
   25.2800007      -1.95392799E-02
   25.4400005      -2.23660078E-02
   25.6000004      -2.44806539E-02
   25.7600002      -2.58233398E-02
   25.9200001      -2.63685659E-02
   26.0799999      -2.61250921E-02
   26.2399998      -2.51341276E-02
   26.3999996      -2.34659985E-02
   26.5599995      -2.12155320E-02
   26.7199993      -1.84964258E-02
   26.8799992      -1.54349953E-02
   27.0400009      -1.21636223E-02
   27.2000008      -8.81431065E-03
   27.3600006      -5.51267853E-03
   27.5200005      -2.37270864E-03
   27.6800003       5.07514691E-04
   27.8400002       3.04889935E-03
   28.0000000       5.19319857E-03
   28.1599998       6.90363208E-03
   28.3199997       8.16436578E-03
   28.4799995       8.97901505E-03
   28.6399994       9.36837960E-03
   28.7999992       9.36765503E-03
   28.9599991       9.02334787E-03
   29.1200008       8.39014165E-03
   29.2800007       7.52784405E-03
   29.4400005       6.49860082E-03
   29.6000004       5.36442595E-03
   29.7600002       4.18509170E-03
   29.9200001       3.01636057E-03
   30.0799999       1.90851639E-03
   30.2399998       9.05145309E-04
   30.3999996       4.21352997E-05
   30.5599995      -6.53125229E-04
   30.7199993      -1.16234657E-03
   30.8799992      -1.47670892E-03
   31.0400009      -1.59695651E-03
   31.2000008      -1.53314637E-03
   31.3600006      -1.30398700E-03
   31.5200005      -9.35735938E-04
   31.6800003      -4.60673647E-04
   31.8400002       8.47860865E-05
