  -8.00000000       0.00000000
  -7.84000015       0.00000000
  -7.67999983       0.00000000
  -7.51999998       0.00000000
  -7.36000013       0.00000000
  -7.19999981       2.43782806E-16
  -7.03999996      -2.58459954E-16
  -6.88000011      -5.84139162E-15
  -6.71999979      -1.18152787E-14
  -6.55999994       2.38020307E-14
  -6.40000010       1.50346654E-13
  -6.23999977       2.50016940E-13
  -6.07999992      -1.05441738E-13
  -5.92000008      -1.25484833E-12
  -5.76000023      -2.37928427E-12
  -5.59999990      -1.03484051E-12
  -5.44000006       4.71503999E-12
  -5.28000021       1.19709988E-11
  -5.11999989       1.14493267E-11
  -4.96000004      -5.66888810E-12
  -4.80000019      -3.49394194E-11
  -4.63999987      -5.31251640E-11
  -4.48000002      -3.20397910E-11
  -4.32000017       3.44291332E-11
  -4.15999985       1.14642434E-10
  -4.00000000       1.53488097E-10
  -3.83999991       1.06539153E-10
  -3.68000007      -3.41685742E-11
  -3.51999998      -2.34296443E-10
  -3.35999990      -4.15781132E-10
  -3.20000005      -4.54422056E-10
  -3.03999996      -2.14198687E-10
  -2.88000011       3.42537887E-10
  -2.72000003       1.02054254E-09
  -2.55999994       1.38791412E-09
  -2.40000010       1.01630637E-09
  -2.24000001      -1.45601392E-10
  -2.07999992      -1.58299418E-09
  -1.91999996      -2.45489740E-09
  -1.75999999      -2.14759144E-09
  -1.60000002      -7.07930770E-10
  -1.44000006       1.20460042E-09
  -1.27999997       2.78122037E-09
  -1.12000000       3.51621621E-09
 -0.959999979       3.29176952E-09
 -0.800000012       2.14687623E-09
 -0.639999986       9.05461608E-11
 -0.479999989      -2.77339351E-09
 -0.319999993      -5.90737459E-09
 -0.159999996      -8.15302936E-09
   0.00000000      -8.01414490E-09
  0.159999996      -4.42496129E-09
  0.319999993       2.34840591E-09
  0.479999989       1.02673123E-08
  0.639999986       1.60509561E-08
  0.800000012       1.66589604E-08
  0.959999979       1.09570371E-08
   1.12000000       4.47135551E-10
   1.27999997      -1.15042376E-08
   1.44000006      -2.13524931E-08
   1.60000002      -2.66761333E-08
   1.75999999      -2.62819615E-08
   1.91999996      -1.95476453E-08
   2.07999992      -6.13614226E-09
   2.24000001       1.33501423E-08
   2.40000010       3.63381503E-08
   2.55999994       5.78000652E-08
   2.72000003       7.04462835E-08
   2.88000011       6.47689191E-08
   3.03999996       2.81228196E-08
   3.20000005      -5.70819765E-08
   3.35999990      -2.15405336E-07
   3.51999998      -4.80447511E-07
   3.68000007      -8.97917801E-07
   3.83999991      -1.53140672E-06
   4.00000000      -2.47259754E-06
   4.15999985      -3.85752219E-06
   4.32000017      -5.89087949E-06
   4.48000002      -8.88111663E-06
   4.63999987      -1.32896002E-05
   4.80000019      -1.97977570E-05
   4.96000004      -2.93960147E-05
   5.11999989      -4.34978210E-05
   5.28000021      -6.40802973E-05
   5.44000006      -9.38500016E-05
   5.59999990      -1.36429284E-04
   5.76000023      -1.96554916E-04
   5.92000008      -2.80276174E-04
   6.07999992      -3.95132171E-04
   6.23999977      -5.50274097E-04
   6.40000010      -7.56488356E-04
   6.55999994      -1.02606439E-03
   6.71999979      -1.37244747E-03
   6.88000011      -1.80961913E-03
   7.03999996      -2.35115318E-03
   7.19999981      -3.00891465E-03
   7.36000013      -3.79140303E-03
   7.51999998      -4.70179599E-03
   7.67999983      -5.73580060E-03
   7.84000015      -6.87949080E-03
   8.00000000      -8.10735952E-03
   8.15999985      -9.38087329E-03
   8.31999969      -1.06478250E-02
   8.47999954      -1.18427901E-02
   8.64000034      -1.28889177E-02
   8.80000019      -1.37011912E-02
   8.96000004      -1.41911656E-02
   9.11999989      -1.42729832E-02
   9.27999973      -1.38703221E-02
   9.43999958      -1.29237492E-02
   9.60000038      -1.13977976E-02
   9.76000023      -9.28708911E-03
   9.92000008      -6.62070373E-03
   10.0799999      -3.46421311E-03
   10.2399998       8.11079371E-05
   10.3999996       3.88208963E-03
   10.5600004       7.78040336E-03
   10.7200003       1.16018271E-02
   10.8800001       1.51673434E-02
   11.0400000       1.83051564E-02
   11.1999998       2.08626017E-02
   11.3599997       2.27168426E-02
   11.5200005       2.37834398E-02
   11.6800003       2.40219496E-02
   11.8400002       2.34381203E-02
   12.0000000       2.20825206E-02
   12.1599998       2.00458225E-02
   12.3199997       1.74512062E-02
   12.4799995       1.44447424E-02
   12.6400003       1.11846216E-02
   12.8000002       7.83025566E-03
   12.9600000       4.53220634E-03
   13.1199999       1.42370921E-03
   13.2799997      -1.38565875E-03
   13.4399996      -3.81387211E-03
   13.6000004      -5.80788543E-03
   13.7600002      -7.34279631E-03
   13.9200001      -8.41914304E-03
   14.0799999      -9.05888434E-03
   14.2399998      -9.30065662E-03
   14.3999996      -9.19487514E-03
   14.5600004      -8.79912172E-03
   14.7200003      -8.17414559E-03
   14.8800001      -7.38065364E-03
   15.0400000      -6.47694571E-03
   15.1999998      -5.51734539E-03
   15.3599997      -4.55123559E-03
   15.5200005      -3.62248556E-03
   15.6800003      -2.76903878E-03
   15.8400002      -2.02251575E-03
   16.0000000      -1.40774471E-03
   16.1599998      -9.42211482E-04
   16.3199997      -6.35464152E-04
   16.4799995      -4.88562160E-04
   16.6399994      -4.93705447E-04
   16.7999992      -6.34195458E-04
   16.9599991      -8.84857669E-04
   17.1200008      -1.21299748E-03
   17.2800007      -1.57989573E-03
   17.4400005      -1.94278115E-03
   17.6000004      -2.25717993E-03
   17.7600002      -2.47949571E-03
   17.9200001      -2.56965309E-03
   18.0799999      -2.49361387E-03
   18.2399998      -2.22560018E-03
   18.3999996      -1.74986327E-03
   18.5599995      -1.06189633E-03
   18.7199993      -1.69021587E-04
   18.8799992       9.09679686E-04
   19.0400009       2.14407453E-03
   19.2000008       3.49429273E-03
   19.3600006       4.91257664E-03
   19.5200005       6.34555658E-03
   19.6800003       7.73682864E-03
   19.8400002       9.02970321E-03
   20.0000000       1.01699997E-02
   20.1599998       1.11087337E-02
   20.3199997       1.18046021E-02
   20.4799995       1.22260805E-02
   20.6399994       1.23530170E-02
   20.7999992       1.21776350E-02
   20.9599991       1.17048956E-02
   21.1200008       1.09521654E-02
   21.2800007       9.94821358E-03
   21.4400005       8.73157196E-03
   21.6000004       7.34834233E-03
   21.7600002       5.84961288E-03
   21.9200001       4.28862451E-03
   22.0799999       2.71790288E-03
   22.2399998       1.18655036E-03
   22.3999996      -2.62119720E-04
   22.5599995      -1.59243541E-03
   22.7199993      -2.77760369E-03
   22.8799992      -3.80025315E-03
   23.0400009      -4.65227244E-03
   23.2000008      -5.33399358E-03
   23.3600006      -5.85284177E-03
   23.5200005      -6.22161757E-03
   23.6800003      -6.45660143E-03
   23.8400002      -6.57565519E-03
   24.0000000      -6.59648143E-03
   24.1599998      -6.53520646E-03
   24.3199997      -6.40538149E-03
   24.4799995      -6.21745409E-03
   24.6399994      -5.97871654E-03
   24.7999992      -5.69364848E-03
   24.9599991      -5.36458194E-03
   25.1200008      -4.99257958E-03
   25.2800007      -4.57842741E-03
   25.4400005      -4.12363093E-03
   25.6000004      -3.63131543E-03
   25.7600002      -3.10694007E-03
   25.9200001      -2.55877944E-03
   26.0799999      -1.99817005E-03
   26.2399998      -1.43951969E-03
   26.3999996      -9.00084851E-04
   26.5599995      -3.99512413E-04
   26.7199993       4.08520646E-05
   26.8799992       3.98868171E-04
   27.0400009       6.52688672E-04
   27.2000008       7.82006187E-04
   27.3600006       7.69436592E-04
   27.5200005       6.02003129E-04
   27.6800003       2.72654259E-04
   27.8400002      -2.18292174E-04
   28.0000000      -8.61911278E-04
   28.1599998      -1.63977733E-03
   28.3199997      -2.52354681E-03
   28.4799995      -3.47514311E-03
   28.6399994      -4.44765994E-03
   28.7999992      -5.38705755E-03
   28.9599991      -6.23465143E-03
   29.1200008      -6.93031028E-03
   29.2800007      -7.41618639E-03
   29.4400005      -7.64075108E-03
   29.6000004      -7.56285386E-03
   29.7600002      -7.15549337E-03
   29.9200001      -6.40894659E-03
   30.0799999      -5.33292396E-03
   30.2399998      -3.95746902E-03
   30.3999996      -2.33244128E-03
   30.5599995      -5.25523792E-04
   30.7199993       1.38117652E-03
   30.8799992       3.29577620E-03
   31.0400009       5.12222107E-03
   31.2000008       6.76646177E-03
   31.3600006       8.14272743E-03
   31.5200005       9.17938631E-03
   31.6800003       9.82392114E-03
   31.8400002       1.00466339E-02
