  -8.00000000       0.00000000
  -7.84000015       0.00000000
  -7.67999983       0.00000000
  -7.51999998       0.00000000
  -7.36000013       0.00000000
  -7.19999981       0.00000000
  -7.03999996       5.32608788E-24
  -6.88000011      -3.51169245E-22
  -6.71999979      -4.27088860E-21
  -6.55999994      -2.21460985E-20
  -6.40000010      -5.90384071E-20
  -6.23999977      -5.34358256E-20
  -6.07999992       1.51209534E-19
  -5.92000008       5.01305624E-19
  -5.76000023       1.16764195E-19
  -5.59999990      -2.21505113E-18
  -5.44000006      -4.71198886E-18
  -5.28000021       2.21852529E-19
  -5.11999989       1.77569671E-17
  -4.96000004       2.91609687E-17
  -4.80000019      -1.16391997E-17
  -4.63999987      -1.15779028E-16
  -4.48000002      -1.60212298E-16
  -4.32000017       7.63247558E-17
  -4.15999985       5.88554702E-16
  -4.00000000       7.70259998E-16
  -3.83999991      -2.99635999E-16
  -3.68000007      -2.51546805E-15
  -3.51999998      -3.46437407E-15
  -3.35999990       3.49146981E-16
  -3.20000005       8.82196588E-15
  -3.03999996       1.39972423E-14
  -2.88000011       3.67177432E-15
  -2.72000003      -2.44614865E-14
  -2.55999994      -4.89457582E-14
  -2.40000010      -3.14707943E-14
  -2.24000001       4.62954565E-14
  -2.07999992       1.40146128E-13
  -1.91999996       1.46134312E-13
  -1.75999999      -1.94330398E-14
  -1.60000002      -3.03448212E-13
  -1.44000006      -4.75199578E-13
  -1.27999997      -2.59364063E-13
  -1.12000000       3.93250103E-13
 -0.959999979       1.10534889E-12
 -0.800000012       1.19591110E-12
 -0.639999986       1.82899350E-13
 -0.479999989      -1.63191921E-12
 -0.319999993      -3.02562684E-12
 -0.159999996      -2.51480412E-12
   0.00000000       4.34042179E-13
  0.159999996       4.51059242E-12
  0.319999993       6.90263081E-12
  0.479999989       5.01977626E-12
  0.639999986      -1.40741021E-12
  0.800000012      -9.43492073E-12
  0.959999979      -1.41376806E-11
   1.12000000      -1.13668432E-11
   1.27999997      -3.31311964E-13
   1.44000006       1.54054755E-11
   1.60000002       2.86803185E-11
   1.75999999       3.07163427E-11
   1.91999996       1.44147133E-11
   2.07999992      -2.05010748E-11
   2.24000001      -6.18220128E-11
   2.40000010      -8.39088313E-11
   2.55999994      -5.80961043E-11
   2.72000003       2.52154703E-11
   2.88000011       1.35274361E-10
   3.03999996       2.01873462E-10
   3.20000005       1.51803042E-10
   3.35999990      -3.22853827E-11
   3.51999998      -2.71520972E-10
   3.68000007      -4.12170825E-10
   3.83999991      -3.15811099E-10
   4.00000000       3.04241562E-11
   4.15999985       4.64779326E-10
   4.32000017       7.18508919E-10
   4.48000002       5.78243620E-10
   4.63999987       4.38842469E-11
   4.80000019      -6.32100872E-10
   4.96000004      -1.06883025E-09
   5.11999989      -9.78493286E-10
   5.28000021      -3.46465773E-10
   5.44000006       5.46225787E-10
   5.59999990       1.27096944E-09
   5.76000023       1.47477952E-09
   5.92000008       1.04752851E-09
   6.07999992       1.55094923E-10
   6.23999977      -8.51322068E-10
   6.40000010      -1.58536539E-09
   6.55999994      -1.77307991E-09
   6.71999979      -1.35929690E-09
   6.88000011      -5.39125189E-10
   7.03999996       3.23202048E-10
   7.19999981       8.91097196E-10
   7.36000013       1.08334097E-09
   7.51999998       1.17391452E-09
   7.67999983       1.64084990E-09
   7.84000015       2.80199663E-09
   8.00000000       4.44586901E-09
   8.15999985       5.68768188E-09
   8.31999969       5.11084775E-09
   8.47999954       1.02364150E-09
   8.64000034      -8.44361558E-09
   8.80000019      -2.55937742E-08
   8.96000004      -5.38140021E-08
   9.11999989      -9.86168445E-08
   9.27999973      -1.69146873E-07
   9.43999958      -2.80329687E-07
   9.60000038      -4.55855599E-07
   9.76000023      -7.32163414E-07
   9.92000008      -1.16367380E-06
   10.0799999      -1.82974395E-06
   10.2399998      -2.84399948E-06
   10.3999996      -4.36664823E-06
   10.5600004      -6.61997228E-06
   10.7200003      -9.90666285E-06
   10.8800001      -1.46301227E-05
   11.0400000      -2.13154472E-05
   11.1999998      -3.06291331E-05
   11.3599997      -4.33945570E-05
   11.5200005      -6.05989953E-05
   11.6800003      -8.33869126E-05
   11.8400002      -1.13033399E-04
   12.0000000      -1.50891894E-04
   12.1599998      -1.98311376E-04
   12.3199997      -2.56520143E-04
   12.4799995      -3.26476584E-04
   12.6400003      -4.08691791E-04
   12.8000002      -5.03032119E-04
   12.9600000      -6.08517090E-04
   13.1199999      -7.23131699E-04
   13.2799997      -8.43678368E-04
   13.4399996      -9.65695886E-04
   13.6000004      -1.08347367E-03
   13.7600002      -1.19018368E-03
   13.9200001      -1.27814349E-03
   14.0799999      -1.33921416E-03
   14.2399998      -1.36531796E-03
   14.3999996      -1.34904857E-03
   14.5600004      -1.28433015E-03
   14.7200003      -1.16706791E-03
   14.8800001      -9.95725626E-04
   15.0400000      -7.71764724E-04
   15.1999998      -4.99884656E-04
   15.3599997      -1.88021120E-04
   15.5200005       1.52923720E-04
   15.6800003       5.09614765E-04
   15.8400002       8.67050083E-04
   16.0000000       1.20949908E-03
   16.1599998       1.52153161E-03
   16.3199997       1.78904354E-03
   16.4799995       2.00018589E-03
   16.6399994       2.14611460E-03
   16.7999992       2.22149631E-03
   16.9599991       2.22473312E-03
   17.1200008       2.15789815E-03
   17.2800007       2.02640519E-03
   17.4400005       1.83846545E-03
   17.6000004       1.60440349E-03
   17.7600002       1.33591250E-03
   17.9200001       1.04532065E-03
   18.0799999       7.44928198E-04
   18.2399998       4.46453516E-04
   18.3999996       1.60602969E-04
   18.5599995      -1.03236605E-04
   18.7199993      -3.37204052E-04
   18.8799992      -5.35097439E-04
   19.0400009      -6.92464702E-04
   19.2000008      -8.06672266E-04
   19.3600006      -8.76957027E-04
   19.5200005      -9.04452580E-04
   19.6800003      -8.92165757E-04
   19.8400002      -8.44874186E-04
   20.0000000      -7.68912607E-04
   20.1599998      -6.71828107E-04
   20.3199997      -5.61898109E-04
   20.4799995      -4.47533734E-04
   20.6399994      -3.36613070E-04
   20.7999992      -2.35812113E-04
   20.9599991      -1.50014908E-04
   21.1200008      -8.18824410E-05
   21.2800007      -3.16529731E-05
   21.4400005       2.77868503E-06
   21.6000004       2.54888655E-05
   21.7600002       4.18861273E-05
   21.9200001       5.78725485E-05
   22.0799999       7.89035403E-05
   22.2399998       1.09064524E-04
   22.3999996       1.50287378E-04
   22.5599995       2.01819174E-04
   22.7199993       2.60029221E-04
   22.8799992       3.18600185E-04
   23.0400009       3.69099842E-04
   23.2000008       4.01881145E-04
   23.3600006       4.07215441E-04
   23.5200005       3.76533106E-04
   23.6800003       3.03628185E-04
   23.8400002       1.85685334E-04
   24.0000000       2.40036225E-05
   24.1599998      -1.75672598E-04
   24.3199997      -4.03263461E-04
   24.4799995      -6.44904969E-04
   24.6399994      -8.83898581E-04
   24.7999992      -1.10197696E-03
   24.9599991      -1.28077180E-03
   25.1200008      -1.40335073E-03
   25.2800007      -1.45568617E-03
   25.4400005      -1.42792799E-03
   25.6000004      -1.31537288E-03
   25.7600002      -1.11904519E-03
   25.9200001      -8.45839269E-04
   26.0799999      -5.08201483E-04
   26.2399998      -1.23373015E-04
   26.3999996       2.87755509E-04
   26.5599995       7.02097313E-04
   26.7199993       1.09602243E-03
   26.8799992       1.44709041E-03
   27.0400009       1.73572579E-03
   27.2000008       1.94670167E-03
   27.3600006       2.07030075E-03
   27.5200005       2.10305303E-03
   27.6800003       2.04796880E-03
   27.8400002       1.91424123E-03
   28.0000000       1.71641738E-03
   28.1599998       1.47309841E-03
   28.3199997       1.20527809E-03
   28.4799995       9.34457930E-04
   28.6399994       6.80713216E-04
   28.7999992       4.60889860E-04
   28.9599991       2.87105911E-04
   29.1200008       1.65705424E-04
   29.2800007       9.67744782E-05
   29.4400005       7.42719421E-05
   29.6000004       8.67673443E-05
   29.7600002       1.18708529E-04
   29.9200001       1.52096793E-04
   30.0799999       1.68400555E-04
   30.2399998       1.50524618E-04
   30.3999996       8.46366165E-05
   30.5599995      -3.83291590E-05
   30.7199993      -2.21632537E-04
   30.8799992      -4.62244265E-04
   31.0400009      -7.50955427E-04
   31.2000008      -1.07305450E-03
   31.3600006      -1.40949700E-03
   31.5200005      -1.73844688E-03
   31.6800003      -2.03704159E-03
   31.8400002      -2.28321203E-03
