  -8.00000000       0.00000000
  -7.84000015       0.00000000
  -7.67999983       0.00000000
  -7.51999998       0.00000000
  -7.36000013       0.00000000
  -7.19999981      -9.93327165E-34
  -7.03999996      -1.25933575E-17
  -6.88000011      -4.40188100E-17
  -6.71999979       1.67109128E-17
  -6.55999994       3.07568092E-16
  -6.40000010       3.03068627E-16
  -6.23999977      -1.39575095E-15
  -6.07999992      -4.35261983E-15
  -5.92000008      -2.16860297E-15
  -5.76000023       1.38148939E-14
  -5.59999990       3.72291851E-14
  -5.44000006       3.37814358E-14
  -5.28000021      -3.24436794E-14
  -5.11999989      -1.33736094E-13
  -4.96000004      -1.48873250E-13
  -4.80000019       4.44063325E-14
  -4.63999987       3.91318109E-13
  -4.48000002       5.92257092E-13
  -4.32000017       3.12069652E-13
  -4.15999985      -4.45451591E-13
  -4.00000000      -1.16612048E-12
  -3.83999991      -1.11853072E-12
  -3.68000007       5.57087132E-14
  -3.51999998       1.92695035E-12
  -3.35999990       3.37031878E-12
  -3.20000005       3.12596650E-12
  -3.03999996       5.86707603E-13
  -2.88000011      -3.46344741E-12
  -2.72000003      -6.62698325E-12
  -2.55999994      -5.84458046E-12
  -2.40000010       3.71351577E-13
  -2.24000001       9.74909910E-12
  -2.07999992       1.63797743E-11
  -1.91999996       1.41599623E-11
  -1.75999999       1.58663284E-12
  -1.60000002      -1.58715211E-11
  -1.44000006      -2.80398933E-11
  -1.27999997      -2.56429322E-11
  -1.12000000      -5.98123764E-12
 -0.959999979       2.38939719E-11
 -0.800000012       4.80456265E-11
 -0.639999986       4.80980672E-11
 -0.479999989       1.51260792E-11
 -0.319999993      -3.90044247E-11
 -0.159999996      -8.20726959E-11
   0.00000000      -8.00637057E-11
  0.159999996      -2.41110951E-11
  0.319999993       5.66713135E-11
  0.479999989       1.11402360E-10
  0.639999986       1.02497628E-10
  0.800000012       3.13307956E-11
  0.959999979      -6.47191814E-11
   1.12000000      -1.36715653E-10
   1.27999997      -1.48674670E-10
   1.44000006      -9.06780415E-11
   1.60000002       1.63792833E-11
   1.75999999       1.24422070E-10
   1.91999996       1.80302870E-10
   2.07999992       1.64447816E-10
   2.24000001       1.12553064E-10
   2.40000010       8.25177982E-11
   2.55999994       8.19970272E-11
   2.72000003       3.51675772E-11
   2.88000011      -1.48077259E-10
   3.03999996      -4.45275733E-10
   3.20000005      -6.72288003E-10
   3.35999990      -5.96953487E-10
   3.51999998      -1.33681927E-10
   3.68000007       5.68867620E-10
   3.83999991       1.24362187E-09
   4.00000000       1.71356385E-09
   4.15999985       1.98448147E-09
   4.32000017       2.13748685E-09
   4.48000002       2.13889617E-09
   4.63999987       1.73436931E-09
   4.80000019       4.49720788E-10
   4.96000004      -2.42608977E-09
   5.11999989      -7.97464850E-09
   5.28000021      -1.78673893E-08
   5.44000006      -3.46123272E-08
   5.59999990      -6.18978788E-08
   5.76000023      -1.05200101E-07
   5.92000008      -1.72726018E-07
   6.07999992      -2.76590356E-07
   6.23999977      -4.34141839E-07
   6.40000010      -6.69633380E-07
   6.55999994      -1.01664637E-06
   6.71999979      -1.52158248E-06
   6.88000011      -2.24816836E-06
   7.03999996      -3.28266015E-06
   7.19999981      -4.73947557E-06
   7.36000013      -6.76706441E-06
   7.51999998      -9.55361884E-06
   7.67999983      -1.33314879E-05
   7.84000015      -1.83788579E-05
   8.00000000      -2.50169796E-05
   8.15999985      -3.36015146E-05
   8.31999969      -4.45067017E-05
   8.47999954      -5.81006097E-05
   8.64000034      -7.47104496E-05
   8.80000019      -9.45783904E-05
   8.96000004      -1.17809184E-04
   9.11999989      -1.44313657E-04
   9.27999973      -1.73753491E-04
   9.43999958      -2.05492659E-04
   9.60000038      -2.38562614E-04
   9.76000023      -2.71649391E-04
   9.92000008      -3.03109060E-04
   10.0799999      -3.31017945E-04
   10.2399998      -3.53260431E-04
   10.3999996      -3.67651955E-04
   10.5600004      -3.72093054E-04
   10.7200003      -3.64742882E-04
   10.8800001      -3.44199623E-04
   11.0400000      -3.09669093E-04
   11.1999998      -2.61103094E-04
   11.3599997      -1.99290604E-04
   11.5200005      -1.25886829E-04
   11.6800003      -4.33712448E-05
   11.8400002       4.50695188E-05
   12.0000000       1.35728071E-04
   12.1599998       2.24616859E-04
   12.3199997       3.07742390E-04
   12.4799995       3.81386490E-04
   12.6400003       4.42369987E-04
   12.8000002       4.88271035E-04
   12.9600000       5.17578854E-04
   13.1199999       5.29765442E-04
   13.2799997       5.25272335E-04
   13.4399996       5.05411241E-04
   13.6000004       4.72197164E-04
   13.7600002       4.28128318E-04
   13.9200001       3.75945267E-04
   14.0799999       3.18392558E-04
   14.2399998       2.58011540E-04
   14.3999996       1.96986162E-04
   14.5600004       1.37055162E-04
   14.7200003       7.94914522E-05
   14.8800001       2.51458441E-05
   15.0400000      -2.54567185E-05
   15.1999998      -7.19864038E-05
   15.3599997      -1.14167313E-04
   15.5200005      -1.51650631E-04
   15.6800003      -1.83924698E-04
   15.8400002      -2.10277241E-04
   16.0000000      -2.29818033E-04
   16.1599998      -2.41562215E-04
   16.3199997      -2.44567229E-04
   16.4799995      -2.38105247E-04
   16.6399994      -2.21847062E-04
   16.7999992      -1.96029156E-04
   16.9599991      -1.61576274E-04
   17.1200008      -1.20156852E-04
   17.2800007      -7.41529875E-05
   17.4400005      -2.65362323E-05
   17.6000004       1.93487995E-05
   17.7600002       6.00759340E-05
   17.9200001       9.24767519E-05
   18.0799999       1.13993869E-04
   18.2399998       1.23010308E-04
   18.3999996       1.19117532E-04
   18.5599995       1.03287253E-04
   18.7199993       7.79176771E-05
   18.8799992       4.67393911E-05
   19.0400009       1.45807417E-05
   19.2000008      -1.29921518E-05
   19.3600006      -3.01340606E-05
   19.5200005      -3.12428565E-05
   19.6800003      -1.15019839E-05
   19.8400002       3.26040608E-05
   20.0000000       1.02849059E-04
   20.1599998       1.98941299E-04
   20.3199997       3.18347797E-04
   20.4799995       4.56287904E-04
   20.6399994       6.05905254E-04
   20.7999992       7.58615439E-04
   20.9599991       9.04611195E-04
   21.1200008       1.03349320E-03
   21.2800007       1.13498128E-03
   21.4400005       1.19965768E-03
   21.6000004       1.21968670E-03
   21.7600002       1.18945516E-03
   21.9200001       1.10608095E-03
   22.0799999       9.69741610E-04
   22.2399998       7.83791707E-04
   22.3999996       5.54648868E-04
   22.5599995       2.91452161E-04
   22.7199993       5.50908226E-06
   22.8799992      -2.90430849E-04
   23.0400009      -5.83024463E-04
   23.2000008      -8.59240885E-04
   23.3600006      -1.10725313E-03
   23.5200005      -1.31724472E-03
   23.6800003      -1.48206507E-03
   23.8400002      -1.59767980E-03
   24.0000000      -1.66337832E-03
   24.1599998      -1.68172410E-03
   24.3199997      -1.65824848E-03
   24.4799995      -1.60091685E-03
   24.6399994      -1.51940819E-03
   24.7999992      -1.42426544E-03
   24.9599991      -1.32599007E-03
   25.1200008      -1.23415177E-03
   25.2800007      -1.15658960E-03
   25.4400005      -1.09876506E-03
   25.6000004      -1.06331182E-03
   25.7600002      -1.04981882E-03
   25.9200001      -1.05486286E-03
   26.0799999      -1.07229070E-03
   26.2399998      -1.09372579E-03
   26.3999996      -1.10926188E-03
   26.5599995      -1.10828853E-03
   26.7199993      -1.08039402E-03
   26.8799992      -1.01627898E-03
   27.0400009      -9.08613787E-04
   27.2000008      -7.52772554E-04
   27.3600006      -5.47376811E-04
   27.5200005      -2.94604892E-04
   27.6800003      -2.32248240E-07
   27.8400002       3.26605339E-04
   28.0000000       6.73926086E-04
   28.1599998       1.02766196E-03
   28.3199997       1.37261348E-03
   28.4799995       1.69352605E-03
   28.6399994       1.97619665E-03
   28.7999992       2.20851693E-03
   28.9599991       2.38135806E-03
   29.1200008       2.48921243E-03
   29.2800007       2.53052870E-03
   29.4400005       2.50769616E-03
   29.6000004       2.42667808E-03
   29.7600002       2.29632854E-03
   29.9200001       2.12745648E-03
   30.0799999       1.93173788E-03
   30.2399998       1.72058388E-03
   30.3999996       1.50408805E-03
   30.5599995       1.29016151E-03
   30.7199993       1.08395284E-03
   30.8799992       8.87610135E-04
   31.0400009       7.00414006E-04
   31.2000008       5.19256690E-04
   31.3600006       3.39404913E-04
   31.5200005       1.55451664E-04
   31.6800003      -3.76593416E-05
   31.8400002      -2.43655930E-04
