  -8.00000000       0.00000000
  -7.84000015       0.00000000
  -7.67999983       0.00000000
  -7.51999998       0.00000000
  -7.36000013       0.00000000
  -7.19999981      -1.59258511E-21
  -7.03999996       3.28544325E-21
  -6.88000011      -1.39658318E-19
  -6.71999979      -6.98653547E-19
  -6.55999994      -9.87458540E-19
  -6.40000010      -2.21056884E-19
  -6.23999977      -1.66757854E-18
  -6.07999992      -4.59306428E-18
  -5.92000008       1.74578801E-17
  -5.76000023       7.62706185E-17
  -5.59999990       3.21137223E-17
  -5.44000006      -3.39407928E-16
  -5.28000021      -7.08802305E-16
  -5.11999989       2.62940706E-16
  -4.96000004       3.20814279E-15
  -4.80000019       4.43597973E-15
  -4.63999987      -3.38019149E-15
  -4.48000002      -1.98028256E-14
  -4.32000017      -2.33618954E-14
  -4.15999985       1.66607705E-14
  -4.00000000       9.12815627E-14
  -3.83999991       1.12169537E-13
  -3.68000007      -3.30092975E-14
  -3.51999998      -3.17606835E-13
  -3.35999990      -4.61441378E-13
  -3.20000005      -9.31924148E-14
  -3.03999996       7.99648867E-13
  -2.88000011       1.52883272E-12
  -2.72000003       1.01830447E-12
  -2.55999994      -1.15366549E-12
  -2.40000010      -3.77027706E-12
  -2.24000001      -4.24627130E-12
  -2.07999992      -5.95050159E-13
  -1.91999996       6.09637557E-12
  -1.75999999       1.10259675E-11
  -1.60000002       8.46219362E-12
  -1.44000006      -3.16695845E-12
  -1.27999997      -1.78107824E-11
  -1.12000000      -2.40145785E-11
 -0.959999979      -1.30559461E-11
 -0.800000012       1.23502137E-11
 -0.639999986       3.65949493E-11
 -0.479999989       4.05498794E-11
 -0.319999993       1.64116186E-11
 -0.159999996      -2.36160223E-11
   0.00000000      -5.33849562E-11
  0.159999996      -5.09338821E-11
  0.319999993      -1.56486282E-11
  0.479999989       2.89949852E-11
  0.639999986       5.05208375E-11
  0.800000012       3.13059682E-11
  0.959999979      -1.44054317E-11
   1.12000000      -4.38578653E-11
   1.27999997      -1.36101217E-11
   1.44000006       7.94673077E-11
   1.60000002       1.72055856E-10
   1.75999999       1.55649521E-10
   1.91999996      -4.59227552E-11
   2.07999992      -3.82675253E-10
   2.24000001      -6.47158049E-10
   2.40000010      -5.67198233E-10
   2.55999994      -5.86526650E-13
   2.72000003       8.88227714E-10
   2.88000011       1.61827673E-09
   3.03999996       1.61432856E-09
   3.20000005       5.72028758E-10
   3.35999990      -1.24634902E-09
   3.51999998      -2.99972291E-09
   3.68000007      -3.61835362E-09
   3.83999991      -2.38754727E-09
   4.00000000       5.33577238E-10
   4.15999985       3.98510380E-09
   4.32000017       6.23766727E-09
   4.48000002       5.84872861E-09
   4.63999987       2.52082222E-09
   4.80000019      -2.55134225E-09
   4.96000004      -7.13947745E-09
   5.11999989      -9.08745879E-09
   5.28000021      -7.47247952E-09
   5.44000006      -3.11390425E-09
   5.59999990       1.94070449E-09
   5.76000023       5.69189718E-09
   5.92000008       7.43943707E-09
   6.07999992       8.18145285E-09
   6.23999977       9.85508386E-09
   6.40000010       1.38469289E-08
   6.55999994       1.96219698E-08
   6.71999979       2.41333495E-08
   6.88000011       2.20691199E-08
   7.03999996       6.43541709E-09
   7.19999981      -3.12158512E-08
   7.36000013      -1.01540934E-07
   7.51999998      -2.19714892E-07
   7.67999983      -4.09922222E-07
   7.84000015      -7.12571932E-07
   8.00000000      -1.19450760E-06
   8.15999985      -1.96231963E-06
   8.31999969      -3.17933745E-06
   8.47999954      -5.08795529E-06
   8.64000034      -8.03991134E-06
   8.80000019      -1.25372035E-05
   8.96000004      -1.92850202E-05
   9.11999989      -2.92562509E-05
   9.27999973      -4.37651688E-05
   9.43999958      -6.45465552E-05
   9.60000038      -9.38347730E-05
   9.76000023      -1.34434522E-04
   9.92000008      -1.89771337E-04
   10.0799999      -2.63904949E-04
   10.2399998      -3.61484388E-04
   10.3999996      -4.87619691E-04
   10.5600004      -6.47646957E-04
   10.7200003      -8.46767332E-04
   10.8800001      -1.08955021E-03
   11.0400000      -1.37930491E-03
   11.1999998      -1.71734137E-03
   11.3599997      -2.10215477E-03
   11.5200005      -2.52860086E-03
   11.6800003      -2.98713637E-03
   11.8400002      -3.46323312E-03
   12.0000000      -3.93707631E-03
   12.1599998      -4.38365433E-03
   12.3199997      -4.77334298E-03
   12.4799995      -5.07303793E-03
   12.6400003      -5.24785370E-03
   12.8000002      -5.26335044E-03
   12.9600000      -5.08816633E-03
   13.1199999      -4.69687767E-03
   13.2799997      -4.07285895E-03
   13.4399996      -3.21087544E-03
   13.6000004      -2.11912557E-03
   13.7600002      -8.20470566E-04
   13.9200001       6.47358189E-04
   14.0799999       2.23272829E-03
   14.2399998       3.87227954E-03
   14.3999996       5.49421879E-03
   14.5600004       7.02253543E-03
   14.7200003       8.38183425E-03
   14.8800001       9.50241089E-03
   15.0400000       1.03251440E-02
   15.1999998       1.08058034E-02
   15.3599997       1.09183611E-02
   15.5200005       1.06570255E-02
   15.6800003       1.00368038E-02
   15.8400002       9.09252465E-03
   16.0000000       7.87640922E-03
   16.1599998       6.45438535E-03
   16.3199997       4.90146549E-03
   16.4799995       3.29655502E-03
   16.6399994       1.71712704E-03
   16.7999992       2.34172374E-04
   16.9599991      -1.09217816E-03
   17.1200008      -2.21602689E-03
   17.2800007      -3.10784415E-03
   17.4400005      -3.75524163E-03
   17.6000004      -4.16237814E-03
   17.7600002      -4.34810249E-03
   17.9200001      -4.34303470E-03
   18.0799999      -4.18586889E-03
   18.2399998      -3.91926523E-03
   18.3999996      -3.58572416E-03
   18.5599995      -3.22383875E-03
   18.7199993      -2.86527234E-03
   18.8799992      -2.53272057E-03
   19.0400009      -2.23902892E-03
   19.2000008      -1.98751409E-03
   19.3600006      -1.77340559E-03
   19.5200005      -1.58618880E-03
   19.6800003      -1.41252298E-03
   19.8400002      -1.23932934E-03
   20.0000000      -1.05663296E-03
   20.1599998      -8.59771331E-04
   20.3199997      -6.50660833E-04
   20.4799995      -4.37922514E-04
   20.6399994      -2.35824060E-04
   20.7999992      -6.21572981E-05
   20.9599991       6.46693661E-05
   21.1200008       1.28918167E-04
   21.2800007       1.20709934E-04
   21.4400005       3.86228312E-05
   21.6000004      -1.08733926E-04
   21.7600002      -3.02494562E-04
   21.9200001      -5.14820626E-04
   22.0799999      -7.11666129E-04
   22.2399998      -8.56792671E-04
   22.3999996      -9.16624034E-04
   22.5599995      -8.65382724E-04
   22.7199993      -6.89881970E-04
   22.8799992      -3.93348077E-04
   23.0400009       2.27586065E-06
   23.2000008       4.55948379E-04
   23.3600006       9.09281080E-04
   23.5200005       1.29041390E-03
   23.6800003       1.51977094E-03
   23.8400002       1.51722878E-03
   24.0000000       1.21007371E-03
   24.1599998       5.41016751E-04
   24.3199997      -5.24486240E-04
   24.4799995      -1.99233182E-03
   24.6399994      -3.83589230E-03
   24.7999992      -5.99461980E-03
   24.9599991      -8.37537553E-03
   25.1200008      -1.08564887E-02
   25.2800007      -1.32943196E-02
   25.4400005      -1.55319031E-02
   25.6000004      -1.74090695E-02
   25.7600002      -1.87733024E-02
   25.9200001      -1.94905363E-02
   26.0799999      -1.94550529E-02
   26.2399998      -1.85977314E-02
   26.3999996      -1.68920401E-02
   26.5599995      -1.43572846E-02
   26.7199993      -1.10588791E-02
   26.8799992      -7.10559078E-03
   27.0400009      -2.64395913E-03
   27.2000008       2.14971183E-03
   27.3600006       7.07918964E-03
   27.5200005       1.19392816E-02
   27.6800003       1.65271796E-02
   27.8400002       2.06534192E-02
   28.0000000       2.41517592E-02
   28.1599998       2.68873572E-02
   28.3199997       2.87628211E-02
   28.4799995       2.97218412E-02
   28.6399994       2.97503248E-02
   28.7999992       2.88751107E-02
   28.9599991       2.71604806E-02
   29.1200008       2.47028787E-02
   29.2800007       2.16242392E-02
   29.4400005       1.80645045E-02
   29.6000004       1.41738094E-02
   29.7600002       1.01048499E-02
   29.9200001       6.00589020E-03
   30.0799999       2.01477553E-03
   30.2399998      -1.74578966E-03
   30.3999996      -5.17157372E-03
   30.5599995      -8.17875098E-03
   30.7199993      -1.07045285E-02
   30.8799992      -1.27066718E-02
   31.0400009      -1.41621986E-02
   31.2000008      -1.50655527E-02
   31.3600006      -1.54265650E-02
   31.5200005      -1.52684506E-02
   31.6800003      -1.46260187E-02
   31.8400002      -1.35442205E-02
