  -8.00000000       0.00000000
  -7.84000015       0.00000000
  -7.67999983       0.00000000
  -7.51999998       0.00000000
  -7.36000013       0.00000000
  -7.19999981       1.13087348E-15
  -7.03999996      -6.01653127E-17
  -6.88000011      -2.22476422E-14
  -6.71999979      -5.74381647E-14
  -6.55999994       4.60963089E-14
  -6.40000010       5.25513606E-13
  -6.23999977       1.08535609E-12
  -6.07999992       1.27806945E-13
  -5.92000008      -4.36978882E-12
  -5.76000023      -1.10146579E-11
  -5.59999990      -1.12083580E-11
  -5.44000006       6.96481241E-12
  -5.28000021       4.33317861E-11
  -5.11999989       7.00940278E-11
  -4.96000004       4.03320190E-11
  -4.80000019      -6.79108575E-11
  -4.63999987      -2.01185180E-10
  -4.48000002      -2.34604808E-10
  -4.32000017      -6.31129177E-11
  -4.15999985       2.74458123E-10
  -4.00000000       5.61217961E-10
  -3.83999991       5.36020672E-10
  -3.68000007       1.20591842E-10
  -3.51999998      -4.58954402E-10
  -3.35999990      -8.01842592E-10
  -3.20000005      -6.39560516E-10
  -3.03999996      -6.00118566E-11
  -2.88000011       5.61301616E-10
  -2.72000003       8.69847916E-10
  -2.55999994       8.01800515E-10
  -2.40000010       5.77964399E-10
  -2.24000001       4.51958054E-10
  -2.07999992       4.63296512E-10
  -1.91999996       4.11031514E-10
  -1.75999999       4.16373706E-11
  -1.60000002      -7.22733873E-10
  -1.44000006      -1.67163439E-09
  -1.27999997      -2.35416975E-09
  -1.12000000      -2.26935826E-09
 -0.959999979      -1.15871546E-09
 -0.800000012       7.20629056E-10
 -0.639999986       2.57149169E-09
 -0.479999989       3.44496143E-09
 -0.319999993       2.87890756E-09
 -0.159999996       1.29355426E-09
   0.00000000      -2.74183509E-10
  0.159999996      -9.69822223E-10
  0.319999993      -7.85668752E-10
  0.479999989      -4.70952555E-10
  0.639999986      -7.40763784E-10
  0.800000012      -1.50511448E-09
  0.959999979      -1.83682491E-09
   1.12000000      -7.21215532E-10
   1.27999997       2.05425654E-09
   1.44000006       5.57434543E-09
   1.60000002       8.19338819E-09
   1.75999999       8.22577473E-09
   1.91999996       4.35326708E-09
   2.07999992      -4.53581883E-09
   2.24000001      -1.99843697E-08
   2.40000010      -4.48165167E-08
   2.55999994      -8.40348662E-08
   2.72000003      -1.45910036E-07
   2.88000011      -2.43806454E-07
   3.03999996      -3.99553699E-07
   3.20000005      -6.49082835E-07
   3.35999990      -1.05059996E-06
   3.51999998      -1.69520320E-06
   3.68000007      -2.71998692E-06
   3.83999991      -4.32446768E-06
   4.00000000      -6.79226150E-06
   4.15999985      -1.05210511E-05
   4.32000017      -1.60649179E-05
   4.48000002      -2.41948765E-05
   4.63999987      -3.59847691E-05
   4.80000019      -5.29307763E-05
   4.96000004      -7.71111445E-05
   5.11999989      -1.11388625E-04
   5.28000021      -1.59652467E-04
   5.44000006      -2.27087119E-04
   5.59999990      -3.20445019E-04
   5.76000023      -4.48288891E-04
   5.92000008      -6.21153275E-04
   6.07999992      -8.51563236E-04
   6.23999977      -1.15384138E-03
   6.40000010      -1.54363050E-03
   6.55999994      -2.03706953E-03
   6.71999979      -2.64958292E-03
   6.88000011      -3.39427684E-03
   7.03999996      -4.27997811E-03
   7.19999981      -5.30900713E-03
   7.36000013      -6.47484791E-03
   7.51999998      -7.75990775E-03
   7.67999983      -9.13363788E-03
   7.84000015      -1.05512794E-02
   8.00000000      -1.19535401E-02
   8.15999985      -1.32674454E-02
   8.31999969      -1.44085698E-02
   8.47999954      -1.52847143E-02
   8.64000034      -1.58010107E-02
   8.80000019      -1.58662274E-02
   8.96000004      -1.53999366E-02
   9.11999989      -1.43400077E-02
   9.27999973      -1.26498230E-02
   9.43999958      -1.03245042E-02
   9.60000038      -7.39547331E-03
   9.76000023      -3.93270375E-03
   9.92000008      -4.41904594E-05
   10.0799999       4.12760861E-03
   10.2399998       8.41237046E-03
   10.3999996       1.26212109E-02
   10.5600004       1.65581331E-02
   10.7200003       2.00327598E-02
   10.8800001       2.28733364E-02
   11.0400000       2.49388814E-02
   11.1999998       2.61294153E-02
   11.3599997       2.63933092E-02
   11.5200005       2.57310644E-02
   11.6800003       2.41951346E-02
   11.8400002       2.18858011E-02
   12.0000000       1.89434588E-02
   12.1599998       1.55379949E-02
   12.3199997       1.18562654E-02
   12.4799995       8.08877125E-03
   12.6400003       4.41674888E-03
   12.8000002       1.00072951E-03
   12.9600000      -2.02855025E-03
   13.1199999      -4.57624486E-03
   13.2799997      -6.58620941E-03
   13.4399996      -8.04055482E-03
   13.6000004      -8.95630568E-03
   13.7600002      -9.37975198E-03
   13.9200001      -9.37926583E-03
   14.0799999      -9.03736427E-03
   14.2399998      -8.44282005E-03
   14.3999996      -7.68348388E-03
   14.5600004      -6.84031984E-03
   14.7200003      -5.98297920E-03
   14.8800001      -5.16699255E-03
   15.0400000      -4.43249056E-03
   15.1999998      -3.80424270E-03
   15.3599997      -3.29272659E-03
   15.5200005      -2.89591891E-03
   15.6800003      -2.60148477E-03
   15.8400002      -2.38911458E-03
   16.0000000      -2.23283749E-03
   16.1599998      -2.10322440E-03
   16.3199997      -1.96945504E-03
   16.4799995      -1.80125318E-03
   16.6399994      -1.57067832E-03
   16.7999992      -1.25377974E-03
   16.9599991      -8.32086545E-04
   17.1200008      -2.93880556E-04
   17.2800007       3.64839856E-04
   17.4400005       1.13981287E-03
   17.6000004       2.01848522E-03
   17.7600002       2.98056100E-03
   17.9200001       3.99912242E-03
   18.0799999       5.04225586E-03
   18.2399998       6.07504370E-03
   18.3999996       7.06175715E-03
   18.5599995       7.96801969E-03
   18.7199993       8.76274705E-03
   18.8799992       9.41966567E-03
   19.0400009       9.91830509E-03
   19.2000008       1.02444086E-02
   19.3600006       1.03897834E-02
   19.5200005       1.03517026E-02
   19.6800003       1.01320613E-02
   19.8400002       9.73642524E-03
   20.0000000       9.17320512E-03
   20.1599998       8.45305994E-03
   20.3199997       7.58864637E-03
   20.4799995       6.59468817E-03
   20.6399994       5.48834447E-03
   20.7999992       4.28971183E-03
   20.9599991       3.02227261E-03
   21.1200008       1.71311083E-03
   21.2800007       3.92733287E-04
   21.4400005      -9.05608991E-04
   21.6000004      -2.14713905E-03
   21.7600002      -3.29727842E-03
   21.9200001      -4.32373909E-03
   22.0799999      -5.19876974E-03
   22.2399998      -5.90128312E-03
   22.3999996      -6.41860999E-03
   22.5599995      -6.74762530E-03
   22.7199993      -6.89510116E-03
   22.8799992      -6.87718065E-03
   23.0400009      -6.71797944E-03
   23.2000008      -6.44741906E-03
   23.3600006      -6.09850511E-03
   23.5200005      -5.70434518E-03
   23.6800003      -5.29522821E-03
   23.8400002      -4.89609735E-03
   24.0000000      -4.52466961E-03
   24.1599998      -4.19039978E-03
   24.3199997      -3.89438029E-03
   24.4799995      -3.63017363E-03
   24.6399994      -3.38546466E-03
   24.7999992      -3.14432103E-03
   24.9599991      -2.88978242E-03
   25.1200008      -2.60647875E-03
   25.2800007      -2.28298339E-03
   25.4400005      -1.91365846E-03
   25.6000004      -1.49980909E-03
   25.7600002      -1.05005887E-03
   25.9200001      -5.79937361E-04
   26.0799999      -1.10758876E-04
   26.2399998       3.32060241E-04
   26.3999996       7.21058343E-04
   26.5599995       1.02894905E-03
   26.7199993       1.23080006E-03
   26.8799992       1.30598876E-03
   27.0400009       1.23979175E-03
   27.2000008       1.02451758E-03
   27.3600006       6.60147052E-04
   27.5200005       1.54485999E-04
   27.6800003      -4.77117661E-04
   27.8400002      -1.21242693E-03
   28.0000000      -2.02325615E-03
   28.1599998      -2.87662982E-03
   28.3199997      -3.73609015E-03
   28.4799995      -4.56310576E-03
   28.6399994      -5.31853084E-03
   28.7999992      -5.96408732E-03
   28.9599991      -6.46386249E-03
   29.1200008      -6.78581279E-03
   29.2800007      -6.90326421E-03
   29.4400005      -6.79637212E-03
   29.6000004      -6.45345543E-03
   29.7600002      -5.87211875E-03
   29.9200001      -5.06005436E-03
   30.0799999      -4.03543469E-03
   30.2399998      -2.82679661E-03
   30.3999996      -1.47234451E-03
   30.5599995      -1.86179768E-05
   30.7199993       1.48144981E-03
   30.8799992       2.97100074E-03
   31.0400009       4.39209165E-03
   31.2000008       5.68872970E-03
   31.3600006       6.80987118E-03
   31.5200005       7.71216769E-03
   31.6800003       8.36223736E-03
   31.8400002       8.73828679E-03
