  -8.00000000       0.00000000
  -7.84000015       0.00000000
  -7.67999983       0.00000000
  -7.51999998       0.00000000
  -7.36000013       0.00000000
  -7.19999981      -1.17022247E-16
  -7.03999996      -6.39759168E-16
  -6.88000011      -1.97846462E-15
  -6.71999979      -6.42163079E-15
  -6.55999994      -1.81600120E-14
  -6.40000010      -1.66161623E-14
  -6.23999977       1.06663308E-13
  -6.07999992       5.17608200E-13
  -5.92000008       1.06160111E-12
  -5.76000023       6.62611947E-13
  -5.59999990      -2.40336548E-12
  -5.44000006      -8.08001929E-12
  -5.28000021      -1.11853747E-11
  -5.11999989      -2.34797598E-12
  -4.96000004       2.22897499E-11
  -4.80000019       4.80270025E-11
  -4.63999987       4.22252060E-11
  -4.48000002      -1.90994772E-11
  -4.32000017      -1.14108917E-10
  -4.15999985      -1.68970379E-10
  -4.00000000      -1.09540328E-10
  -3.83999991       6.14357384E-11
  -3.68000007       2.39911452E-10
  -3.51999998       2.92985636E-10
  -3.35999990       1.71852074E-10
  -3.20000005      -4.99256400E-11
  -3.03999996      -2.58177257E-10
  -2.88000011      -4.05931205E-10
  -2.72000003      -5.11841625E-10
  -2.55999994      -5.46992285E-10
  -2.40000010      -3.72508663E-10
  -2.24000001       1.35238043E-10
  -2.07999992       8.65655603E-10
  -1.91999996       1.42719281E-09
  -1.75999999       1.40416256E-09
  -1.60000002       7.10700110E-10
  -1.44000006      -3.15974691E-10
  -1.27999997      -1.18878662E-09
  -1.12000000      -1.62229996E-09
 -0.959999979      -1.60415881E-09
 -0.800000012      -1.18049182E-09
 -0.639999986      -2.99542557E-10
 -0.479999989       1.03552322E-09
 -0.319999993       2.48469822E-09
 -0.159999996       3.36524253E-09
   0.00000000       3.04499403E-09
  0.159999996       1.40112366E-09
  0.319999993      -1.07295983E-09
  0.479999989      -3.56537244E-09
  0.639999986      -5.34854250E-09
  0.800000012      -6.01260952E-09
  0.959999979      -5.48822143E-09
   1.12000000      -3.89917698E-09
   1.27999997      -1.24726374E-09
   1.44000006       2.90469382E-09
   1.60000002       9.28865163E-09
   1.75999999       1.80289241E-08
   1.91999996       2.75630931E-08
   2.07999992       3.47020865E-08
   2.24000001       3.65129154E-08
   2.40000010       3.28249783E-08
   2.55999994       2.69496478E-08
   2.72000003       2.34279778E-08
   2.88000011       2.45043683E-08
   3.03999996       2.85208284E-08
   3.20000005       3.14857829E-08
   3.35999990       2.92951707E-08
   3.51999998       1.64209091E-08
   3.68000007      -2.06442898E-08
   3.83999991      -1.12604489E-07
   4.00000000      -3.14857516E-07
   4.15999985      -7.11169150E-07
   4.32000017      -1.41523071E-06
   4.48000002      -2.57343936E-06
   4.63999987      -4.37107656E-06
   4.80000019      -7.04254035E-06
   4.96000004      -1.08869126E-05
   5.11999989      -1.62925862E-05
   5.28000021      -2.37762561E-05
   5.44000006      -3.40410552E-05
   5.59999990      -4.80561575E-05
   5.76000023      -6.71574016E-05
   5.92000008      -9.31632385E-05
   6.07999992      -1.28493950E-04
   6.23999977      -1.76273272E-04
   6.40000010      -2.40385227E-04
   6.55999994      -3.25457309E-04
   6.71999979      -4.36740636E-04
   6.88000011      -5.79863728E-04
   7.03999996      -7.60442228E-04
   7.19999981      -9.83536709E-04
   7.36000013      -1.25297019E-03
   7.51999998      -1.57054351E-03
   7.67999983      -1.93520309E-03
   7.84000015      -2.34225020E-03
   8.00000000      -2.78268848E-03
   8.15999985      -3.24280863E-03
   8.31999969      -3.70411086E-03
   8.47999954      -4.14364645E-03
   8.64000034      -4.53482848E-03
   8.80000019      -4.84872144E-03
   8.96000004      -5.05576003E-03
   9.11999989      -5.12783602E-03
   9.27999973      -5.04059158E-03
   9.43999958      -4.77573927E-03
   9.60000038      -4.32317890E-03
   9.76000023      -3.68270488E-03
   9.92000008      -2.86508957E-03
   10.0799999      -1.89239415E-03
   10.2399998      -7.97397573E-04
   10.3999996       3.77884629E-04
   10.5600004       1.58452336E-03
   10.7200003       2.76968651E-03
   10.8800001       3.88010102E-03
   11.0400000       4.86566965E-03
   11.1999998       5.68293594E-03
   11.3599997       6.29806379E-03
   11.5200005       6.68908283E-03
   11.6800003       6.84717298E-03
   11.8400002       6.77688979E-03
   12.0000000       6.49533095E-03
   12.1599998       6.03034999E-03
   12.3199997       5.41801611E-03
   12.4799995       4.69956873E-03
   12.6400003       3.91818210E-03
   12.8000002       3.11581371E-03
   12.9600000       2.33041542E-03
   13.1199999       1.59370177E-03
   13.2799997       9.29613714E-04
   13.4399996       3.53523763E-04
   13.6000004      -1.27837746E-04
   13.7600002      -5.15814056E-04
   13.9200001      -8.18719214E-04
   14.0799999      -1.05032790E-03
   14.2399998      -1.22807454E-03
   14.3999996      -1.37108192E-03
   14.5600004      -1.49811560E-03
   14.7200003      -1.62556884E-03
   14.8800001      -1.76556723E-03
   15.0400000      -1.92429894E-03
   15.1999998      -2.10068538E-03
   15.3599997      -2.28551822E-03
   15.5200005      -2.46119592E-03
   15.6800003      -2.60218466E-03
   15.8400002      -2.67628534E-03
   16.0000000      -2.64671561E-03
   16.1599998      -2.47493549E-03
   16.3199997      -2.12405599E-03
   16.4799995      -1.56258710E-03
   16.6399994      -7.68209691E-04
   16.7999992       2.68796721E-04
   16.9599991       1.54283817E-03
   17.1200008       3.03133763E-03
   17.2800007       4.69434634E-03
   17.4400005       6.47554453E-03
   17.6000004       8.30460340E-03
   17.7600002       1.01007465E-02
   17.9200001       1.17772361E-02
   18.0799999       1.32464226E-02
   18.2399998       1.44249462E-02
   18.3999996       1.52386809E-02
   18.5599995       1.56270657E-02
   18.7199993       1.55465426E-02
   18.8799992       1.49729298E-02
   19.0400009       1.39026875E-02
   19.2000008       1.23531083E-02
   19.3600006       1.03615178E-02
   19.5200005       7.98361283E-03
   19.6800003       5.29108383E-03
   19.8400002       2.36865343E-03
   20.0000000      -6.89316075E-04
   20.1599998      -3.78254778E-03
   20.3199997      -6.80882810E-03
   20.4799995      -9.66815557E-03
   20.6399994      -1.22669321E-02
   20.7999992      -1.45220188E-02
   20.9599991      -1.63644589E-02
   21.1200008      -1.77426152E-02
   21.2800007      -1.86245162E-02
   21.4400005      -1.89992096E-02
   21.6000004      -1.88769121E-02
   21.7600002      -1.82878748E-02
   21.9200001      -1.72800254E-02
   22.0799999      -1.59155261E-02
   22.2399998      -1.42665589E-02
   22.3999996      -1.24106789E-02
   22.5599995      -1.04261190E-02
   22.7199993      -8.38744733E-03
   22.8799992      -6.36194646E-03
   23.0400009      -4.40697325E-03
   23.2000008      -2.56844820E-03
   23.3600006      -8.80450942E-04
   23.5200005       6.34225551E-04
   23.6800003       1.96277862E-03
   23.8400002       3.10061593E-03
   24.0000000       4.04937891E-03
   24.1599998       4.81503736E-03
   24.3199997       5.40628564E-03
   24.4799995       5.83335804E-03
   24.6399994       6.10727724E-03
   24.7999992       6.23947475E-03
   24.9599991       6.24167873E-03
   25.1200008       6.12595584E-03
   25.2800007       5.90481889E-03
   25.4400005       5.59133058E-03
   25.6000004       5.19912411E-03
   25.7600002       4.74231644E-03
   25.9200001       4.23532398E-03
   26.0799999       3.69263883E-03
   26.2399998       3.12861032E-03
   26.3999996       2.55727000E-03
   26.5599995       1.99216930E-03
   26.7199993       1.44618703E-03
   26.8799992       9.31254006E-04
   27.0400009       4.57991118E-04
   27.2000008       3.52744864E-05
   27.3600006      -3.30236100E-04
   27.5200005      -6.34556403E-04
   27.6800003      -8.76756094E-04
   27.8400002      -1.05915405E-03
   28.0000000      -1.18721894E-03
   28.1599998      -1.26909697E-03
   28.3199997      -1.31476019E-03
   28.4799995      -1.33485999E-03
   28.6399994      -1.33943430E-03
   28.7999992      -1.33664324E-03
   28.9599991      -1.33171538E-03
   29.1200008      -1.32627948E-03
   29.2800007      -1.31822785E-03
   29.4400005      -1.30219222E-03
   29.6000004      -1.27060909E-03
   29.7600002      -1.21521915E-03
   29.9200001      -1.12876249E-03
   30.0799999      -1.00660173E-03
   30.2399998      -8.48027121E-04
   30.3999996      -6.57042197E-04
   30.5599995      -4.42481774E-04
   30.7199993      -2.17382752E-04
   30.8799992       2.35123343E-06
   31.0400009       1.99823044E-04
   31.2000008       3.59277503E-04
   31.3600006       4.68185492E-04
   31.5200005       5.18998713E-04
   31.6800003       5.10359474E-04
   31.8400002       4.47618950E-04
