  -8.00000000       0.00000000
  -7.84000015       0.00000000
  -7.67999983       0.00000000
  -7.51999998       0.00000000
  -7.36000013       0.00000000
  -7.19999981      -1.88429800E-18
  -7.03999996       5.25339992E-17
  -6.88000011       3.25902306E-16
  -6.71999979       5.29607509E-16
  -6.55999994      -1.23869569E-15
  -6.40000010      -7.37877844E-15
  -6.23999977      -1.36906935E-14
  -6.07999992      -2.10146079E-15
  -5.92000008       4.60407943E-14
  -5.76000023       1.04230786E-13
  -5.59999990       6.51472555E-14
  -5.44000006      -1.90077039E-13
  -5.28000021      -5.85195737E-13
  -5.11999989      -6.84936970E-13
  -4.96000004       8.48166210E-14
  -4.80000019       1.72071244E-12
  -4.63999987       2.97569283E-12
  -4.48000002       1.76629880E-12
  -4.32000017      -2.90352291E-12
  -4.15999985      -8.74597790E-12
  -4.00000000      -1.02850766E-11
  -3.83999991      -2.75993573E-12
  -3.68000007       1.22512339E-11
  -3.51999998       2.47776018E-11
  -3.35999990       2.20217646E-11
  -3.20000005      -7.84958795E-13
  -3.03999996      -3.30603045E-11
  -2.88000011      -5.33474272E-11
  -2.72000003      -4.44768181E-11
  -2.55999994      -7.58452936E-12
  -2.40000010       3.78072330E-11
  -2.24000001       6.84904911E-11
  -2.07999992       7.34052472E-11
  -1.91999996       5.53317010E-11
  -1.75999999       1.83957155E-11
  -1.60000002      -4.11820890E-11
  -1.44000006      -1.24448382E-10
  -1.27999997      -2.05385195E-10
  -1.12000000      -2.22444271E-10
 -0.959999979      -1.11092816E-10
 -0.800000012       1.34092695E-10
 -0.639999986       4.17637869E-10
 -0.479999989       5.71304393E-10
 -0.319999993       4.52828053E-10
 -0.159999996       5.43274141E-11
   0.00000000      -4.61065131E-10
  0.159999996      -8.32318658E-10
  0.319999993      -8.44811554E-10
  0.479999989      -4.56829158E-10
  0.639999986       1.68380393E-10
  0.800000012       7.40549122E-10
  0.959999979       9.83632065E-10
   1.12000000       7.68450248E-10
   1.27999997       1.79454965E-10
   1.44000006      -5.09476628E-10
   1.60000002      -9.44115008E-10
   1.75999999      -8.49009030E-10
   1.91999996      -1.73893497E-10
   2.07999992       8.48298987E-10
   2.24000001       1.77990711E-09
   2.40000010       2.16888485E-09
   2.55999994       1.74958981E-09
   2.72000003       5.38407652E-10
   2.88000011      -1.21195642E-09
   3.03999996      -3.11557269E-09
   3.20000005      -4.67972461E-09
   3.35999990      -5.21070254E-09
   3.51999998      -3.72844511E-09
   3.68000007       8.83822793E-10
   3.83999991       9.37479161E-09
   4.00000000       2.14098534E-08
   4.15999985       3.50059786E-08
   4.32000017       4.64363339E-08
   4.48000002       5.05983415E-08
   4.63999987       4.14109707E-08
   4.80000019       1.15260237E-08
   4.96000004      -4.93558758E-08
   5.11999989      -1.58007097E-07
   5.28000021      -3.43090335E-07
   5.44000006      -6.52213487E-07
   5.59999990      -1.16032641E-06
   5.76000023      -1.97961504E-06
   5.92000008      -3.27200178E-06
   6.07999992      -5.26657868E-06
   6.23999977      -8.28519569E-06
   6.40000010      -1.27795856E-05
   6.55999994      -1.93827291E-05
   6.71999979      -2.89759500E-05
   6.88000011      -4.27721025E-05
   7.03999996      -6.24135791E-05
   7.19999981      -9.00817686E-05
   7.36000013      -1.28610918E-04
   7.51999998      -1.81594078E-04
   7.67999983      -2.53462757E-04
   7.84000015      -3.49515642E-04
   8.00000000      -4.75866487E-04
   8.15999985      -6.39279082E-04
   8.31999969      -8.46857787E-04
   8.47999954      -1.10556872E-03
   8.64000034      -1.42157928E-03
   8.80000019      -1.79942476E-03
   8.96000004      -2.24103080E-03
   9.11999989      -2.74465815E-03
   9.27999973      -3.30385589E-03
   9.43999958      -3.90654197E-03
   9.60000038      -4.53434512E-03
   9.76000023      -5.16235456E-03
   9.92000008      -5.75941009E-03
   10.0799999      -6.28903648E-03
   10.2399998      -6.71107927E-03
   10.3999996      -6.98402757E-03
   10.5600004      -7.06792157E-03
   10.7200003      -6.92766579E-03
   10.8800001      -6.53647026E-03
   11.0400000      -5.87910227E-03
   11.1999998      -4.95458068E-03
   11.3599997      -3.77797219E-03
   11.5200005      -2.38098600E-03
   11.6800003      -8.11177539E-04
   11.8400002       8.70303542E-04
   12.0000000       2.59231590E-03
   12.1599998       4.27842466E-03
   12.3199997       5.85228065E-03
   12.4799995       7.24317692E-03
   12.6400003       8.39121919E-03
   12.8000002       9.25156754E-03
   12.9600000       9.79729928E-03
   13.1199999       1.00205895E-02
   13.2799997       9.93211009E-03
   13.4399996       9.55873914E-03
   13.6000004       8.93991161E-03
   13.7600002       8.12306255E-03
   13.9200001       7.15876510E-03
   14.0799999       6.09615631E-03
   14.2399998       4.97921649E-03
   14.3999996       3.84430727E-03
   14.5600004       2.71919346E-03
   14.7200003       1.62355404E-03
   14.8800001       5.70753531E-04
   15.0400000      -4.29522857E-04
   15.1999998      -1.36830565E-03
   15.3599997      -2.23461608E-03
   15.5200005      -3.01351375E-03
   15.6800003      -3.68532026E-03
   15.8400002      -4.22624359E-03
   16.0000000      -4.61039506E-03
   16.1599998      -4.81297402E-03
   16.3199997      -4.81418241E-03
   16.4799995      -4.60330583E-03
   16.6399994      -4.18233033E-03
   16.7999992      -3.56848305E-03
   16.9599991      -2.79521151E-03
   17.1200008      -1.91127334E-03
   17.2800007      -9.77864140E-04
   17.4400005      -6.39351201E-05
   17.6000004       7.59898277E-04
   17.7600002       1.42827362E-03
   17.9200001       1.88811298E-03
   18.0799999       2.10500672E-03
   18.2399998       2.06822832E-03
   18.3999996       1.79376919E-03
   18.5599995       1.32496818E-03
   18.7199993       7.30528613E-04
   18.8799992       9.99796466E-05
   19.0400009      -4.63131117E-04
   19.2000008      -8.49795120E-04
   19.3600006      -9.55160067E-04
   19.5200005      -6.88400120E-04
   19.6800003       1.80116149E-05
   19.8400002       1.20045338E-03
   20.0000000       2.85845343E-03
   20.1599998       4.95170616E-03
   20.3199997       7.40015833E-03
   20.4799995       1.00872805E-02
   20.6399994       1.28663657E-02
   20.7999992       1.55694643E-02
   20.9599991       1.80183277E-02
   21.1200008       2.00365335E-02
   21.2800007       2.14619022E-02
   21.4400005       2.21581962E-02
   21.6000004       2.20252257E-02
   21.7600002       2.10065152E-02
   21.9200001       1.90939922E-02
   22.0799999       1.63292848E-02
   22.2399998       1.28016127E-02
   22.3999996       8.64243507E-03
   22.5599995       4.01735771E-03
   22.7199993      -8.84023786E-04
   22.8799992      -5.85953053E-03
   23.0400009      -1.07061723E-02
   23.2000008      -1.52314231E-02
   23.3600006      -1.92632582E-02
   23.5200005      -2.26583220E-02
   23.6800003      -2.53078621E-02
   23.8400002      -2.71411948E-02
   24.0000000      -2.81267613E-02
   24.1599998      -2.82709226E-02
   24.3199997      -2.76148431E-02
   24.4799995      -2.62298416E-02
   24.6399994      -2.42116842E-02
   24.7999992      -2.16742530E-02
   24.9599991      -1.87429860E-02
   25.1200008      -1.55484434E-02
   25.2800007      -1.22202933E-02
   25.4400005      -8.88192095E-03
   25.6000004      -5.64583857E-03
   25.7600002      -2.60998541E-03
   25.9200001       1.44988589E-04
   26.0799999       2.55744066E-03
   26.2399998       4.58544306E-03
   26.3999996       6.20652223E-03
   26.5599995       7.41650118E-03
   26.7199993       8.22756533E-03
   26.8799992       8.66571255E-03
   27.0400009       8.76777153E-03
   27.2000008       8.57821666E-03
   27.3600006       8.14599544E-03
   27.5200005       7.52158603E-03
   27.6800003       6.75446633E-03
   27.8400002       5.89113031E-03
   28.0000000       4.97371983E-03
   28.1599998       4.03927267E-03
   28.3199997       3.11953388E-03
   28.4799995       2.24120775E-03
   28.6399994       1.42650423E-03
   28.7999992       6.93814480E-04
   28.9599991       5.83503388E-05
   29.1200008      -4.67379374E-04
   29.2800007      -8.73344718E-04
   29.4400005      -1.15205708E-03
   29.6000004      -1.29890186E-03
   29.7600002      -1.31267647E-03
   29.9200001      -1.19623367E-03
   30.0799999      -9.57108452E-04
   30.2399998      -6.07991999E-04
   30.3999996      -1.66937403E-04
   30.5599995       3.42805084E-04
   30.7199993       8.93385673E-04
   30.8799992       1.45340886E-03
   31.0400009       1.98942074E-03
   31.2000008       2.46776361E-03
   31.3600006       2.85668648E-03
   31.5200005       3.12855840E-03
   31.6800003       3.26201110E-03
   31.8400002       3.24381492E-03
