  -8.00000000       0.00000000
  -7.84000015       0.00000000
  -7.67999983       0.00000000
  -7.51999998       0.00000000
  -7.36000013       0.00000000
  -7.19999981       3.92169137E-37
  -7.03999996      -3.41979116E-20
  -6.88000011      -6.19130471E-20
  -6.71999979      -2.15612420E-19
  -6.55999994      -1.85784269E-18
  -6.40000010      -4.66779343E-18
  -6.23999977       1.24997144E-18
  -6.07999992       2.26027003E-17
  -5.92000008       1.99401896E-17
  -5.76000023      -6.05914232E-17
  -5.59999990      -9.77345459E-17
  -5.44000006       2.05562164E-16
  -5.28000021       6.14889857E-16
  -5.11999989      -2.46968735E-16
  -4.96000004      -3.02326959E-15
  -4.80000019      -3.57404705E-15
  -4.63999987       5.67183002E-15
  -4.48000002       2.17577031E-14
  -4.32000017       1.75520693E-14
  -4.15999985      -3.73686576E-14
  -4.00000000      -1.13070706E-13
  -3.83999991      -8.62036747E-14
  -3.68000007       1.51424297E-13
  -3.51999998       4.66955034E-13
  -3.35999990       4.15103607E-13
  -3.20000005      -3.77826758E-13
  -3.03999996      -1.53037739E-12
  -2.88000011      -1.71264175E-12
  -2.72000003       3.11168111E-13
  -2.55999994       3.85981394E-12
  -2.40000010       5.65200230E-12
  -2.24000001       2.02936843E-12
  -2.07999992      -6.76571906E-12
  -1.91999996      -1.42510084E-11
  -1.75999999      -1.12809597E-11
  -1.60000002       5.30031357E-12
  -1.44000006       2.60197142E-11
  -1.27999997       3.23728405E-11
  -1.12000000       1.14367864E-11
 -0.959999979      -2.90348232E-11
 -0.800000012      -6.00873518E-11
 -0.639999986      -5.12520859E-11
 -0.479999989       2.14278617E-12
 -0.319999993       6.78182510E-11
 -0.159999996       9.61513924E-11
   0.00000000       5.92981428E-11
  0.159999996      -2.23141141E-11
  0.319999993      -9.22890722E-11
  0.479999989      -1.02991220E-10
  0.639999986      -5.46830047E-11
  0.800000012       7.82445289E-12
  0.959999979       3.99832667E-11
   1.12000000       4.12535839E-11
   1.27999997       5.21291309E-11
   1.44000006       1.02326515E-10
   1.60000002       1.59568053E-10
   1.75999999       1.36533659E-10
   1.91999996      -3.50664740E-11
   2.07999992      -3.18833793E-10
   2.24000001      -5.53791291E-10
   2.40000010      -5.34547517E-10
   2.55999994      -1.50971652E-10
   2.72000003       5.02294761E-10
   2.88000011       1.12518550E-09
   3.03999996       1.33789513E-09
   3.20000005       8.78389639E-10
   3.35999990      -2.25476610E-10
   3.51999998      -1.59995739E-09
   3.68000007      -2.62710298E-09
   3.83999991      -2.68031153E-09
   4.00000000      -1.41653400E-09
   4.15999985       9.81551174E-10
   4.32000017       3.72826570E-09
   4.48000002       5.61695890E-09
   4.63999987       5.47742252E-09
   4.80000019       2.77534062E-09
   4.96000004      -1.93666838E-09
   5.11999989      -7.03400582E-09
   5.28000021      -1.04170619E-08
   5.44000006      -1.04496927E-08
   5.59999990      -6.73202338E-09
   5.76000023      -2.51775295E-10
   5.92000008       7.17292359E-09
   6.07999992       1.38113094E-08
   6.23999977       1.87423730E-08
   6.40000010       2.19502212E-08
   6.55999994       2.36944491E-08
   6.71999979       2.33959980E-08
   6.88000011       1.84708409E-08
   7.03999996       3.51268881E-09
   7.19999981      -3.00787022E-08
   7.36000013      -9.44569081E-08
   7.51999998      -2.06631327E-07
   7.67999983      -3.91858606E-07
   7.84000015      -6.89988781E-07
   8.00000000      -1.16513252E-06
   8.15999985      -1.91883214E-06
   8.31999969      -3.10740074E-06
   8.47999954      -4.96501298E-06
   8.64000034      -7.83482210E-06
   8.80000019      -1.22103520E-05
   8.96000004      -1.87885908E-05
   9.11999989      -2.85350161E-05
   9.27999973      -4.27598025E-05
   9.43999958      -6.32031151E-05
   9.60000038      -9.21252649E-05
   9.76000023      -1.32393674E-04
   9.92000008      -1.87553247E-04
   10.0799999      -2.61860638E-04
   10.2399998      -3.60259000E-04
   10.3999996      -4.88267804E-04
   10.5600004      -6.51762937E-04
   10.7200003      -8.56627419E-04
   10.8800001      -1.10826013E-03
   11.0400000      -1.41093845E-03
   11.1999998      -1.76705094E-03
   11.3599997      -2.17623892E-03
   11.5200005      -2.63451319E-03
   11.6800003      -3.13343736E-03
   11.8400002      -3.65948002E-03
   12.0000000      -4.19366499E-03
   12.1599998      -4.71162144E-03
   12.3199997      -5.18413633E-03
   12.4799995      -5.57827065E-03
   12.6400003      -5.85905276E-03
   12.8000002      -5.99169545E-03
   12.9600000      -5.94421150E-03
   13.1199999      -5.69023471E-03
   13.2799997      -5.21179568E-03
   13.4399996      -4.50177677E-03
   13.6000004      -3.56574985E-03
   13.7600002      -2.42296583E-03
   13.9200001      -1.10629993E-03
   14.0799999       3.38917394E-04
   14.2399998       1.85716432E-03
   14.3999996       3.38593102E-03
   14.5600004       4.85960767E-03
   14.7200003       6.21371064E-03
   14.8800001       7.38906348E-03
   15.0400000       8.33554193E-03
   15.1999998       9.01505817E-03
   15.3599997       9.40353051E-03
   15.5200005       9.49174073E-03
   15.6800003       9.28508677E-03
   15.8400002       8.80235620E-03
   16.0000000       8.07375275E-03
   16.1599998       7.13843852E-03
   16.3199997       6.04186766E-03
   16.4799995       4.83317720E-03
   16.6399994       3.56280664E-03
   16.7999992       2.28043459E-03
   16.9599991       1.03324954E-03
   17.1200008      -1.35514987E-04
   17.2800007      -1.18786807E-03
   17.4400005      -2.09224457E-03
   17.6000004      -2.82461802E-03
   17.7600002      -3.36951483E-03
   17.9200001      -3.72082880E-03
   18.0799999      -3.88229196E-03
   18.2399998      -3.86742549E-03
   18.3999996      -3.69881280E-03
   18.5599995      -3.40659916E-03
   18.7199993      -3.02623166E-03
   18.8799992      -2.59556877E-03
   19.0400009      -2.15161988E-03
   19.2000008      -1.72726042E-03
   19.3600006      -1.34832622E-03
   19.5200005      -1.03148143E-03
   19.6800003      -7.83176394E-04
   19.8400002      -5.99877618E-04
   20.0000000      -4.69578081E-04
   20.1599998      -3.74413765E-04
   20.3199997      -2.94047612E-04
   20.4799995      -2.09363119E-04
   20.6399994      -1.05946543E-04
   20.7999992       2.31533922E-05
   20.9599991       1.75811729E-04
   21.1200008       3.40631232E-04
   21.2800007       4.98241163E-04
   21.4400005       6.23959990E-04
   21.6000004       6.91500260E-04
   21.7600002       6.77246891E-04
   21.9200001       5.64550865E-04
   22.0799999       3.47468653E-04
   22.2399998       3.34354954E-05
   22.3999996      -3.55515542E-04
   22.5599995      -7.83210678E-04
   22.7199993      -1.20149925E-03
   22.8799992      -1.55395293E-03
   23.0400009      -1.78075477E-03
   23.2000008      -1.82429340E-03
   23.3600006      -1.63489825E-03
   23.5200005      -1.17614144E-03
   23.6800003      -4.29178559E-04
   23.8400002       6.04293949E-04
   24.0000000       1.90074765E-03
   24.1599998       3.41531797E-03
   24.3199997       5.08403359E-03
   24.4799995       6.82757515E-03
   24.6399994       8.55622068E-03
   24.7999992       1.01755466E-02
   24.9599991       1.15924198E-02
   25.1200008       1.27207935E-02
   25.2800007       1.34868808E-02
   25.4400005       1.38333933E-02
   25.6000004       1.37225827E-02
   25.7600002       1.31379953E-02
   25.9200001       1.20849162E-02
   26.0799999       1.05895670E-02
   26.2399998       8.69726017E-03
   26.3999996       6.46971120E-03
   26.5599995       3.98177560E-03
   26.7199993       1.31785602E-03
   26.8799992      -1.43182965E-03
   27.0400009      -4.17493703E-03
   27.2000008      -6.82051666E-03
   27.3600006      -9.28226579E-03
   27.5200005      -1.14814695E-02
   27.6800003      -1.33496029E-02
   27.8400002      -1.48305977E-02
   28.0000000      -1.58827435E-02
   28.1599998      -1.64802074E-02
   28.3199997      -1.66140832E-02
   28.4799995      -1.62929185E-02
   28.6399994      -1.55425956E-02
   28.7999992      -1.44055225E-02
   28.9599991      -1.29390433E-02
   29.1200008      -1.12130605E-02
   29.2800007      -9.30686854E-03
   29.4400005      -7.30530452E-03
   29.6000004      -5.29443892E-03
   29.7600002      -3.35704233E-03
   29.9200001      -1.56814069E-03
   30.0799999       9.03474847E-06
   30.2399998       1.32638880E-03
   30.3999996       2.35331501E-03
   30.5599995       3.07783484E-03
   30.7199993       3.50640086E-03
   30.8799992       3.66239087E-03
   31.0400009       3.58344452E-03
   31.2000008       3.31788464E-03
   31.3600006       2.92052655E-03
   31.5200005       2.44823820E-03
   31.6800003       1.95560860E-03
   31.8400002       1.49110099E-03
