  -8.00000000       0.00000000
  -7.84000015       0.00000000
  -7.67999983       0.00000000
  -7.51999998       0.00000000
  -7.36000013       0.00000000
  -7.19999981       0.00000000
  -7.03999996       0.00000000
  -6.88000011       0.00000000
  -6.71999979      -6.61132571E-24
  -6.55999994      -3.99748511E-23
  -6.40000010      -9.76965167E-23
  -6.23999977      -6.91516795E-23
  -6.07999992       2.23923355E-22
  -5.92000008       4.70739177E-22
  -5.76000023      -5.35215139E-22
  -5.59999990      -9.55262442E-22
  -5.44000006       1.18724627E-20
  -5.28000021       4.25793547E-20
  -5.11999989       1.10088620E-20
  -4.96000004      -2.46411521E-19
  -4.80000019      -5.72962988E-19
  -4.63999987       8.04807962E-20
  -4.48000002       2.71477327E-18
  -4.32000017       4.63774031E-18
  -4.15999985      -2.15078147E-18
  -4.00000000      -2.03405797E-17
  -3.83999991      -2.70533042E-17
  -3.68000007       2.06606821E-17
  -3.51999998       1.16857698E-16
  -3.35999990       1.27344521E-16
  -3.20000005      -1.27706284E-16
  -3.03999996      -5.47734226E-16
  -2.88000011      -5.18641344E-16
  -2.72000003       5.91443773E-16
  -2.55999994       2.19128609E-15
  -2.40000010       1.93803616E-15
  -2.24000001      -2.15530837E-15
  -2.07999992      -7.68100996E-15
  -1.91999996      -6.88386217E-15
  -1.75999999       6.15974514E-15
  -1.60000002       2.38337826E-14
  -1.44000006       2.33731999E-14
  -1.27999997      -1.25703103E-14
  -1.12000000      -6.49215517E-14
 -0.959999979      -7.40757892E-14
 -0.800000012       9.70755492E-15
 -0.639999986       1.50565744E-13
 -0.479999989       2.10744630E-13
 -0.319999993       5.56056327E-14
 -0.159999996      -2.76945947E-13
   0.00000000      -5.14113925E-13
  0.159999996      -3.27958391E-13
  0.319999993       3.25299710E-13
  0.479999989       1.01133728E-12
  0.639999986       1.04639366E-12
  0.800000012       8.25773572E-14
  0.959999979      -1.41259324E-12
   1.12000000      -2.29327213E-12
   1.27999997      -1.55105009E-12
   1.44000006       7.55715043E-13
   1.60000002       3.26361486E-12
   1.75999999       4.10899786E-12
   1.91999996       2.27773442E-12
   2.07999992      -1.53441517E-12
   2.24000001      -5.27629242E-12
   2.40000010      -6.85284728E-12
   2.55999994      -5.31043265E-12
   2.72000003      -9.70047827E-13
   2.88000011       5.28380291E-12
   3.03999996       1.23069419E-11
   3.20000005       1.77029884E-11
   3.35999990       1.65736053E-11
   3.51999998       2.80766708E-12
   3.68000007      -2.52498768E-11
   3.83999991      -5.73192119E-11
   4.00000000      -6.93459179E-11
   4.15999985      -3.46334385E-11
   4.32000017       5.31106617E-11
   4.48000002       1.58901489E-10
   4.63999987       2.09046364E-10
   4.80000019       1.29423361E-10
   4.96000004      -9.35837657E-11
   5.11999989      -3.69237668E-10
   5.28000021      -5.20465449E-10
   5.44000006      -3.77949699E-10
   5.59999990       9.06663841E-11
   5.76000023       7.01179170E-10
   5.92000008       1.10044684E-09
   6.07999992       9.49685997E-10
   6.23999977       1.55537083E-10
   6.40000010      -9.97026572E-10
   6.55999994      -1.92358351E-09
   6.71999979      -2.02654404E-09
   6.88000011      -1.04802156E-09
   7.03999996       7.16574744E-10
   7.19999981       2.49283283E-09
   7.36000013       3.38327388E-09
   7.51999998       2.83316437E-09
   7.67999983       9.54782364E-10
   7.84000015      -1.48427115E-09
   8.00000000      -3.43085582E-09
   8.15999985      -4.09285761E-09
   8.31999969      -3.35667205E-09
   8.47999954      -1.80882498E-09
   8.64000034      -3.04906628E-10
   8.80000019       6.86821433E-10
   8.96000004       1.55076751E-09
   9.11999989       3.43487327E-09
   9.27999973       7.55099983E-09
   9.43999958       1.42053320E-08
   9.60000038       2.21226983E-08
   9.76000023       2.84926589E-08
   9.92000008       2.97061238E-08
   10.0799999       2.22320722E-08
   10.2399998       2.83104273E-09
   10.3999996      -3.25210046E-08
   10.5600004      -9.11476690E-08
   10.7200003      -1.87349755E-07
   10.8800001      -3.46938151E-07
   11.0400000      -6.12766485E-07
   11.1999998      -1.05212223E-06
   11.3599997      -1.76742060E-06
   11.5200005      -2.91183255E-06
   11.6800003      -4.71125804E-06
   11.8400002      -7.49368428E-06
   12.0000000      -1.17266036E-05
   12.1599998      -1.80628685E-05
   12.3199997      -2.73948172E-05
   12.4799995      -4.09153290E-05
   12.6400003      -6.01826578E-05
   12.8000002      -8.71831144E-05
   12.9600000      -1.24382685E-04
   13.1199999      -1.74755012E-04
   13.2799997      -2.41770264E-04
   13.4399996      -3.29326955E-04
   13.6000004      -4.41608601E-04
   13.7600002      -5.82848908E-04
   13.9200001      -7.56994647E-04
   14.0799999      -9.67264117E-04
   14.2399998      -1.21561089E-03
   14.3999996      -1.50211749E-03
   14.5600004      -1.82436174E-03
   14.7200003      -2.17681308E-03
   14.8800001      -2.55033490E-03
   15.0400000      -2.93187611E-03
   15.1999998      -3.30443354E-03
   15.3599997      -3.64736281E-03
   15.5200005      -3.93708795E-03
   15.6800003      -4.14822763E-03
   15.8400002      -4.25511552E-03
   16.0000000      -4.23363550E-03
   16.1599998      -4.06326074E-03
   16.3199997      -3.72911897E-03
   16.4799995      -3.22390022E-03
   16.6399994      -2.54940148E-03
   16.7999992      -1.71751215E-03
   16.9599991      -7.50488485E-04
   17.1200008       3.19583749E-04
   17.2800007       1.45216042E-03
   17.4400005       2.60038255E-03
   17.6000004       3.71384202E-03
   17.7600002       4.74175392E-03
   17.9200001       5.63625852E-03
   18.0799999       6.35557109E-03
   18.2399998       6.86668744E-03
   18.3999996       7.14742998E-03
   18.5599995       7.18764775E-03
   18.7199993       6.98950235E-03
   18.8799992       6.56685233E-03
   19.0400009       5.94383059E-03
   19.2000008       5.15279546E-03
   19.3600006       4.23187809E-03
   19.5200005       3.22237192E-03
   19.6800003       2.16619391E-03
   19.8400002       1.10362004E-03
   20.0000000       7.14423222E-05
   20.1599998      -8.98372789E-04
   20.3199997      -1.77949516E-03
   20.4799995      -2.55154772E-03
   20.6399994      -3.20000155E-03
   20.7999992      -3.71575309E-03
   20.9599991      -4.09449684E-03
   21.1200008      -4.33599716E-03
   21.2800007      -4.44335677E-03
   21.4400005      -4.42234706E-03
   21.6000004      -4.28085541E-03
   21.7600002      -4.02847677E-03
   21.9200001      -3.67624476E-03
   22.0799999      -3.23650334E-03
   22.2399998      -2.72287731E-03
   22.3999996      -2.15030462E-03
   22.5599995      -1.53507211E-03
   22.7199993      -8.94796918E-04
   22.8799992      -2.48294236E-04
   23.0400009       3.84716521E-04
   23.2000008       9.84099228E-04
   23.3600006       1.52998499E-03
   23.5200005       2.00362783E-03
   23.6800003       2.38837209E-03
   23.8400002       2.67064106E-03
   24.0000000       2.84084189E-03
   24.1599998       2.89406488E-03
   24.3199997       2.83047953E-03
   24.4799995       2.65535340E-03
   24.6399994       2.37867306E-03
   24.7999992       2.01439275E-03
   24.9599991       1.57939305E-03
   25.1200008       1.09228014E-03
   25.2800007       5.72179793E-04
   25.4400005       3.76834651E-05
   25.6000004      -4.93915635E-04
   25.7600002      -1.00701011E-03
   25.9200001      -1.48766534E-03
   26.0799999      -1.92325446E-03
   26.2399998      -2.30185455E-03
   26.3999996      -2.61157216E-03
   26.5599995      -2.83998833E-03
   26.7199993      -2.97390879E-03
   26.8799992      -2.99956091E-03
   27.0400009      -2.90332153E-03
   27.2000008      -2.67296121E-03
   27.3600006      -2.29931273E-03
   27.5200005      -1.77817908E-03
   27.6800003      -1.11223175E-03
   27.8400002      -3.12624965E-04
   28.0000000       5.99950843E-04
   28.1599998       1.59500004E-03
   28.3199997       2.63288268E-03
   28.4799995       3.66644468E-03
   28.6399994       4.64354409E-03
   28.7999992       5.51028270E-03
   28.9599991       6.21467270E-03
   29.1200008       6.71039242E-03
   29.2800007       6.96027977E-03
   29.4400005       6.93923002E-03
   29.6000004       6.63622469E-03
   29.7600002       6.05531037E-03
   29.9200001       5.21545997E-03
   30.0799999       4.14936058E-03
   30.2399998       2.90127494E-03
   30.3999996       1.52419857E-03
   30.5599995       7.65890945E-05
   30.7199993      -1.38105103E-03
   30.8799992      -2.78946059E-03
   31.0400009      -4.09355666E-03
   31.2000008      -5.24485903E-03
   31.3600006      -6.20332267E-03
   31.5200005      -6.93854736E-03
   31.6800003      -7.43041234E-03
   31.8400002      -7.66919693E-03
