  -8.00000000       0.00000000
  -7.84000015       0.00000000
  -7.67999983       0.00000000
  -7.51999998       0.00000000
  -7.36000013       0.00000000
  -7.19999981       0.00000000
  -7.03999996       0.00000000
  -6.88000011       0.00000000
  -6.71999979      -1.21101711E-25
  -6.55999994      -1.44032571E-24
  -6.40000010      -1.42298501E-23
  -6.23999977      -7.03465008E-23
  -6.07999992      -1.66079694E-22
  -5.92000008      -1.06269838E-22
  -5.76000023       3.58102613E-22
  -5.59999990       7.27487072E-22
  -5.44000006      -3.46009640E-22
  -5.28000021      -2.38561898E-21
  -5.11999989      -1.06739338E-21
  -4.96000004       5.16467866E-21
  -4.80000019       5.57262410E-21
  -4.63999987      -1.20830036E-20
  -4.48000002      -3.45100818E-20
  -4.32000017      -2.88821258E-20
  -4.15999985       2.56835121E-20
  -4.00000000       1.71325829E-19
  -3.83999991       4.36466813E-19
  -3.68000007       3.51227221E-19
  -3.51999998      -1.37926732E-18
  -3.35999990      -4.69509990E-18
  -3.20000005      -3.62148440E-18
  -3.03999996       1.13977688E-17
  -2.88000011       3.34605477E-17
  -2.72000003       1.90633831E-17
  -2.55999994      -7.56720706E-17
  -2.40000010      -1.83127028E-16
  -2.24000001      -7.41222650E-17
  -2.07999992       3.99341597E-16
  -1.91999996       8.33758829E-16
  -1.75999999       2.53790235E-16
  -1.60000002      -1.73596576E-15
  -1.44000006      -3.31530114E-15
  -1.27999997      -9.18102506E-16
  -1.12000000       6.36801614E-15
 -0.959999979       1.18154091E-14
 -0.800000012       3.79862640E-15
 -0.639999986      -1.98775187E-14
 -0.479999989      -3.80791115E-14
 -0.319999993      -1.63157180E-14
 -0.159999996       5.22874827E-14
   0.00000000       1.10509034E-13
  0.159999996       6.45904093E-14
  0.319999993      -1.11467293E-13
  0.479999989      -2.84555040E-13
  0.639999986      -2.22288727E-13
  0.800000012       1.70186564E-13
  0.959999979       6.33155963E-13
   1.12000000       6.49371887E-13
   1.27999997      -8.07030292E-14
   1.44000006      -1.15951151E-12
   1.60000002      -1.57992488E-12
   1.75999999      -5.49414789E-13
   1.91999996       1.55490161E-12
   2.07999992       3.09308460E-12
   2.24000001       2.34114312E-12
   2.40000010      -8.58459625E-13
   2.55999994      -4.47497768E-12
   2.72000003      -5.53179464E-12
   2.88000011      -2.44084570E-12
   3.03999996       3.43915044E-12
   3.20000005       8.38459250E-12
   3.35999990       8.69839530E-12
   3.51999998       3.21211590E-12
   3.68000007      -5.74581962E-12
   3.83999991      -1.33944982E-11
   4.00000000      -1.48930260E-11
   4.15999985      -7.94930181E-12
   4.32000017       5.50099809E-12
   4.48000002       1.95278065E-11
   4.63999987       2.66872566E-11
   4.80000019       2.17370150E-11
   4.96000004       4.42812237E-12
   5.11999989      -2.02531204E-11
   5.28000021      -4.38262690E-11
   5.44000006      -5.60033513E-11
   5.59999990      -4.58661720E-11
   5.76000023      -5.34640561E-12
   5.92000008       6.22194726E-11
   6.07999992       1.32079986E-10
   6.23999977       1.58284358E-10
   6.40000010       9.50381787E-11
   6.55999994      -6.51605922E-11
   6.71999979      -2.61903138E-10
   6.88000011      -3.77727127E-10
   7.03999996      -3.00111297E-10
   7.19999981      -5.27012201E-12
   7.36000013       3.94038441E-10
   7.51999998       6.83318069E-10
   7.67999983       6.59678645E-10
   7.84000015       2.62273203E-10
   8.00000000      -3.63385377E-10
   8.15999985      -9.17605159E-10
   8.31999969      -1.09712872E-09
   8.47999954      -7.64620145E-10
   8.64000034      -3.99245081E-11
   8.80000019       7.46828599E-10
   8.96000004       1.22577770E-09
   9.11999989       1.19166976E-09
   9.27999973       7.18599791E-10
   9.43999958       1.01400721E-10
   9.60000038      -3.53146096E-10
   9.76000023      -5.47141499E-10
   9.92000008      -6.52345122E-10
   10.0799999      -9.37025790E-10
   10.2399998      -1.46622070E-09
   10.3999996      -1.91035632E-09
   10.5600004      -1.65075642E-09
   10.7200003      -1.60185268E-10
   10.8800001       2.58422328E-09
   11.0400000       5.95143890E-09
   11.1999998       8.90013130E-09
   11.3599997       1.04792450E-08
   11.5200005       1.02718305E-08
   11.6800003       8.48742676E-09
   11.8400002       5.59002711E-09
   12.0000000       1.57005275E-09
   12.1599998      -4.89246510E-09
   12.3199997      -1.71426304E-08
   12.4799995      -4.10949994E-08
   12.6400003      -8.58475815E-08
   12.8000002      -1.64859188E-07
   12.9600000      -2.98259067E-07
   13.1199999      -5.16713499E-07
   13.2799997      -8.67027438E-07
   13.4399996      -1.41950511E-06
   13.6000004      -2.27714145E-06
   13.7600002      -3.58686225E-06
   13.9200001      -5.55310498E-06
   14.0799999      -8.45398154E-06
   14.2399998      -1.26599734E-05
   14.3999996      -1.86545331E-05
   14.5600004      -2.70549863E-05
   14.7200003      -3.86308784E-05
   14.8800001      -5.43154165E-05
   15.0400000      -7.52047781E-05
   15.1999998      -1.02539343E-04
   15.3599997      -1.37661249E-04
   15.5200005      -1.81943004E-04
   15.6800003      -2.36682390E-04
   15.8400002      -3.02961620E-04
   16.0000000      -3.81472084E-04
   16.1599998      -4.72311949E-04
   16.3199997      -5.74769976E-04
   16.4799995      -6.87114720E-04
   16.6399994      -8.06414522E-04
   16.7999992      -9.28415800E-04
   16.9599991      -1.04750786E-03
   17.1200008      -1.15680229E-03
   17.2800007      -1.24834746E-03
   17.4400005      -1.31348637E-03
   17.6000004      -1.34335516E-03
   17.7600002      -1.32950023E-03
   17.9200001      -1.26457494E-03
   18.0799999      -1.14306575E-03
   18.2399998      -9.61984217E-04
   18.3999996      -7.21459568E-04
   18.5599995      -4.25162230E-04
   18.7199993      -8.05022573E-05
   18.8799992       3.01436841E-04
   19.0400009       7.06247287E-04
   19.2000008       1.11682143E-03
   19.3600006       1.51422143E-03
   19.5200005       1.87873270E-03
   19.6800003       2.19103252E-03
   19.8400002       2.43338547E-03
   20.0000000       2.59077316E-03
   20.1599998       2.65188282E-03
   20.3199997       2.60987761E-03
   20.4799995       2.46289652E-03
   20.6399994       2.21426156E-03
   20.7999992       1.87238539E-03
   20.9599991       1.45039055E-03
   21.1200008       9.65483545E-04
   21.2800007       4.38121671E-04
   21.4400005      -1.08970569E-04
   21.6000004      -6.51885231E-04
   21.7600002      -1.16666302E-03
   21.9200001      -1.63042685E-03
   22.0799999      -2.02247524E-03
   22.2399998      -2.32529384E-03
   22.3999996      -2.52545113E-03
   22.5599995      -2.61433842E-03
   22.7199993      -2.58871424E-03
   22.8799992      -2.45100609E-03
   23.0400009      -2.20933603E-03
   23.2000008      -1.87723804E-03
   23.3600006      -1.47305138E-03
   23.5200005      -1.01898436E-03
   23.6800003      -5.39882167E-04
   23.8400002      -6.17464684E-05
   24.0000000       3.89894412E-04
   24.1599998       7.91651779E-04
   24.3199997       1.12384767E-03
   24.4799995       1.37185690E-03
   24.6399994       1.52709405E-03
   24.7999992       1.58754666E-03
   24.9599991       1.55778835E-03
   25.1200008       1.44846376E-03
   25.2800007       1.27528026E-03
   25.4400005       1.05760223E-03
   25.6000004       8.16774089E-04
   25.7600002       5.74336445E-04
   25.9200001       3.50302027E-04
   26.0799999       1.61650372E-04
   26.2399998       2.11650095E-05
   26.3999996      -6.33006784E-05
   26.5599995      -8.90913652E-05
   26.7199993      -5.85617272E-05
   26.8799992       2.15104701E-05
   27.0400009       1.40813019E-04
   27.2000008       2.86571769E-04
   27.3600006       4.44686448E-04
   27.5200005       6.00830186E-04
   27.6800003       7.41429452E-04
   27.8400002       8.54468788E-04
   28.0000000       9.30086477E-04
   28.1599998       9.60963836E-04
   28.3199997       9.42538201E-04
   28.4799995       8.73087323E-04
   28.6399994       7.53731176E-04
   28.7999992       5.88378171E-04
   28.9599991       3.83633364E-04
   29.1200008       1.48671868E-04
   29.2800007      -1.04933912E-04
   29.4400005      -3.63465631E-04
   29.6000004      -6.11439929E-04
   29.7600002      -8.32171587E-04
   29.9200001      -1.00855238E-03
   30.0799999      -1.12405187E-03
   30.2399998      -1.16391480E-03
   30.3999996      -1.11650152E-03
   30.5599995      -9.74686234E-04
   30.7199993      -7.37186696E-04
   30.8799992      -4.09667962E-04
   31.0400009      -5.46389174E-06
   31.2000008       4.54225636E-04
   31.3600006       9.40758793E-04
   31.5200005       1.41915004E-03
   31.6800003       1.84984261E-03
   31.8400002       2.19109468E-03
