  -8.00000000       0.00000000
  -7.84000015       0.00000000
  -7.67999983       0.00000000
  -7.51999998       0.00000000
  -7.36000013       0.00000000
  -7.19999981      -6.13518140E-16
  -7.03999996      -5.98269747E-15
  -6.88000011      -1.86830532E-14
  -6.71999979      -6.18403296E-15
  -6.55999994       1.19033174E-13
  -6.40000010       3.66198527E-13
  -6.23999977       3.83918618E-13
  -6.07999992      -4.91805435E-13
  -5.92000008      -2.27728773E-12
  -5.76000023      -3.05471425E-12
  -5.59999990       4.19418000E-13
  -5.44000006       8.73189108E-12
  -5.28000021       1.54107057E-11
  -5.11999989       8.94262702E-12
  -4.96000004      -1.57118762E-11
  -4.80000019      -4.46480283E-11
  -4.63999987      -4.77635362E-11
  -4.48000002      -3.14226900E-12
  -4.32000017       7.40304207E-11
  -4.15999985       1.28660693E-10
  -4.00000000       1.02538610E-10
  -3.83999991      -1.37890576E-11
  -3.68000007      -1.60274752E-10
  -3.51999998      -2.42364961E-10
  -3.35999990      -1.97349304E-10
  -3.20000005      -3.80434642E-11
  -3.03999996       1.60355521E-10
  -2.88000011       3.13397475E-10
  -2.72000003       3.70203507E-10
  -2.55999994       3.11415449E-10
  -2.40000010       1.18470248E-10
  -2.24000001      -2.30993419E-10
  -2.07999992      -7.03322567E-10
  -1.91999996      -1.12035781E-09
  -1.75999999      -1.15386989E-09
  -1.60000002      -5.02469677E-10
  -1.44000006       7.95553678E-10
  -1.27999997       2.15572626E-09
  -1.12000000       2.63434718E-09
 -0.959999979       1.54740676E-09
 -0.800000012      -8.59838811E-10
 -0.639999986      -3.28810024E-09
 -0.479999989      -4.09953893E-09
 -0.319999993      -2.48641729E-09
 -0.159999996       7.90634835E-10
   0.00000000       3.77009091E-09
  0.159999996       4.59903093E-09
  0.319999993       2.83440760E-09
  0.479999989      -2.53653459E-10
  0.639999986      -2.60384869E-09
  0.800000012      -2.81147816E-09
  0.959999979      -1.05170672E-09
   1.12000000       1.13260978E-09
   1.27999997       1.96502326E-09
   1.44000006       6.73122336E-10
   1.60000002      -2.01906714E-09
   1.75999999      -4.47917570E-09
   1.91999996      -5.42657475E-09
   2.07999992      -4.93710761E-09
   2.24000001      -4.37504699E-09
   2.40000010      -5.21992494E-09
   2.55999994      -7.69503039E-09
   2.72000003      -1.03873354E-08
   2.88000011      -1.12908261E-08
   3.03999996      -9.46008516E-09
   3.20000005      -5.82171200E-09
   3.35999990      -2.26236363E-09
   3.51999998       6.19229723E-10
   3.68000007       5.89479265E-09
   3.83999991       2.18871801E-08
   4.00000000       6.28879562E-08
   4.15999985       1.49491981E-07
   4.32000017       3.08878015E-07
   4.48000002       5.75051615E-07
   4.63999987       9.89232831E-07
   4.80000019       1.60123579E-06
   4.96000004       2.47309481E-06
   5.11999989       3.68605720E-06
   5.28000021       5.35135950E-06
   5.44000006       7.62472246E-06
   5.59999990       1.07244559E-05
   5.76000023       1.49529324E-05
   5.92000008       2.07210778E-05
   6.07999992       2.85737424E-05
   6.23999977       3.92120710E-05
   6.40000010       5.35065628E-05
   6.55999994       7.24926358E-05
   6.71999979       9.73414280E-05
   6.88000011       1.29300388E-04
   7.03999996       1.69602718E-04
   7.19999981       2.19346635E-04
   7.36000013       2.79347878E-04
   7.51999998       3.49971640E-04
   7.67999983       4.30955348E-04
   7.84000015       5.21238195E-04
   8.00000000       6.18819671E-04
   8.15999985       7.20669574E-04
   8.31999969       8.22710630E-04
   8.47999954       9.19892802E-04
   8.64000034       1.00636797E-03
   8.80000019       1.07576803E-03
   8.96000004       1.12157955E-03
   9.11999989       1.13759772E-03
   9.27999973       1.11842877E-03
   9.43999958       1.05999934E-03
   9.60000038       9.60025180E-04
   9.76000023       8.18393833E-04
   9.92000008       6.37413526E-04
   10.0799999       4.21891484E-04
   10.2399998       1.79014984E-04
   10.3999996      -8.19697161E-05
   10.5600004      -3.50264338E-04
   10.7200003      -6.14175224E-04
   10.8800001      -8.61867797E-04
   11.0400000      -1.08215795E-03
   11.1999998      -1.26527494E-03
   11.3599997      -1.40352861E-03
   11.5200005      -1.49181893E-03
   11.6800003      -1.52794120E-03
   11.8400002      -1.51266612E-03
   12.0000000      -1.44959264E-03
   12.1599998      -1.34478905E-03
   12.3199997      -1.20626669E-03
   12.4799995      -1.04333041E-03
   12.6400003      -8.65866255E-04
   12.8000002      -6.83627499E-04
   12.9600000      -5.05575037E-04
   13.1199999      -3.39321006E-04
   13.2799997      -1.90706662E-04
   13.4399996      -6.35385077E-05
   13.6000004       4.05093815E-05
   13.7600002       1.21827958E-04
   13.9200001       1.82651638E-04
   14.0799999       2.26702716E-04
   14.2399998       2.58728222E-04
   14.3999996       2.83962872E-04
   14.5600004       3.07550508E-04
   14.7200003       3.33961274E-04
   14.8800001       3.66442546E-04
   15.0400000       4.06546576E-04
   15.1999998       4.53776709E-04
   15.3599997       5.05392847E-04
   15.5200005       5.56406798E-04
   15.6800003       5.99789375E-04
   15.8400002       6.26897614E-04
   16.0000000       6.28113165E-04
   16.1599998       5.93658595E-04
   16.3199997       5.14530344E-04
   16.4799995       3.83463601E-04
   16.6399994       1.95838235E-04
   16.7999992      -4.95642489E-05
   16.9599991      -3.50031420E-04
   17.1200008      -6.98684249E-04
   17.2800007      -1.08458078E-03
   17.4400005      -1.49317004E-03
   17.6000004      -1.90706621E-03
   17.7600002      -2.30707251E-03
   17.9200001      -2.67335866E-03
   18.0799999      -2.98669399E-03
   18.2399998      -3.22962133E-03
   18.3999996      -3.38748121E-03
   18.5599995      -3.44920857E-03
   18.7199993      -3.40784178E-03
   18.8799992      -3.26074497E-03
   19.0400009      -3.00956261E-03
   19.2000008      -2.65995460E-03
   19.3600006      -2.22117244E-03
   19.5200005      -1.70553708E-03
   19.6800003      -1.12787972E-03
   19.8400002      -5.04986907E-04
   20.0000000       1.44931095E-04
   20.1599998       8.02753610E-04
   20.3199997       1.44896121E-03
   20.4799995       2.06417195E-03
   20.6399994       2.62971944E-03
   20.7999992       3.12828808E-03
   20.9599991       3.54460045E-03
   21.1200008       3.86612955E-03
   21.2800007       4.08377685E-03
   21.4400005       4.19244729E-03
   21.6000004       4.19143774E-03
   21.7600002       4.08457825E-03
   21.9200001       3.88007634E-03
   22.0799999       3.59005271E-03
   22.2399998       3.22978757E-03
   22.3999996       2.81673647E-03
   22.5599995       2.36940314E-03
   22.7199993       1.90617179E-03
   22.8799992       1.44420657E-03
   23.0400009       9.98507137E-04
   23.2000008       5.81198954E-04
   23.3600006       2.01107032E-04
   23.5200005      -1.36372793E-04
   23.6800003      -4.29130072E-04
   23.8400002      -6.77969831E-04
   24.0000000      -8.86079390E-04
   24.1599998      -1.05839327E-03
   24.3199997      -1.20091846E-03
   24.4799995      -1.32007163E-03
   24.6399994      -1.42207497E-03
   24.7999992      -1.51244167E-03
   24.9599991      -1.59556372E-03
   25.1200008      -1.67441170E-03
   25.2800007      -1.75035035E-03
   25.4400005      -1.82307651E-03
   25.6000004      -1.89068657E-03
   25.7600002      -1.94986619E-03
   25.9200001      -1.99618516E-03
   26.0799999      -2.02446920E-03
   26.2399998      -2.02921499E-03
   26.3999996      -2.00501573E-03
   26.5599995      -1.94695755E-03
   26.7199993      -1.85095705E-03
   26.8799992      -1.71400863E-03
   27.0400009      -1.53433182E-03
   27.2000008      -1.31142919E-03
   27.3600006      -1.04608608E-03
   27.5200005      -7.40345917E-04
   27.6800003      -3.97497672E-04
   27.8400002      -2.20970178E-05
   28.0000000       3.79971956E-04
   28.1599998       8.01401096E-04
   28.3199997       1.23335456E-03
   28.4799995       1.66540348E-03
   28.6399994       2.08555744E-03
   28.7999992       2.48045102E-03
   28.9599991       2.83572543E-03
   29.1200008       3.13660828E-03
   29.2800007       3.36867175E-03
   29.4400005       3.51871364E-03
   29.6000004       3.57569219E-03
   29.7600002       3.53162526E-03
   29.9200001       3.38235055E-03
   30.0799999       3.12806736E-03
   30.2399998       2.77359388E-03
   30.3999996       2.32831948E-03
   30.5599995       1.80585461E-03
   30.7199993       1.22342398E-03
   30.8799992       6.01052539E-04
   31.0400009      -3.93818882E-05
   31.2000008      -6.75159215E-04
   31.3600006      -1.28373213E-03
   31.5200005      -1.84369751E-03
   31.6800003      -2.33568810E-03
   31.8400002      -2.74315989E-03
