  -8.00000000       0.00000000
  -7.84000015       0.00000000
  -7.67999983       0.00000000
  -7.51999998       0.00000000
  -7.36000013       0.00000000
  -7.19999981       0.00000000
  -7.03999996       0.00000000
  -6.88000011       0.00000000
  -6.71999979      -9.54879887E-26
  -6.55999994      -2.64714445E-24
  -6.40000010      -1.81298317E-23
  -6.23999977      -7.91025287E-23
  -6.07999992      -2.17294980E-22
  -5.92000008      -1.72370538E-22
  -5.76000023       9.04502209E-22
  -5.59999990       2.52293782E-21
  -5.44000006      -1.27219480E-21
  -5.28000021      -1.49039819E-20
  -5.11999989      -1.25866088E-20
  -4.96000004       5.63755253E-20
  -4.80000019       1.33002629E-19
  -4.63999987      -6.91966180E-20
  -4.48000002      -6.56039374E-19
  -4.32000017      -6.65803310E-19
  -4.15999985       1.46867221E-18
  -4.00000000       4.41257967E-18
  -3.83999991       1.41943655E-18
  -3.68000007      -1.18006810E-17
  -3.51999998      -2.06547512E-17
  -3.35999990       5.14329986E-18
  -3.20000005       6.33467486E-17
  -3.03999996       7.17256052E-17
  -2.88000011      -6.48400809E-17
  -2.72000003      -2.60601015E-16
  -2.55999994      -1.85033315E-16
  -2.40000010       3.62480735E-16
  -2.24000001       8.77424066E-16
  -2.07999992       3.13086274E-16
  -1.91999996      -1.49484978E-15
  -1.75999999      -2.53207434E-15
  -1.60000002      -5.07737522E-17
  -1.44000006       5.13773213E-15
  -1.27999997       6.55754908E-15
  -1.12000000      -2.00889195E-15
 -0.959999979      -1.55574440E-14
 -0.800000012      -1.61146392E-14
 -0.639999986       9.06011428E-15
 -0.479999989       4.26226200E-14
 -0.319999993       3.97848766E-14
 -0.159999996      -2.50547755E-14
   0.00000000      -1.06186192E-13
  0.159999996      -1.01157072E-13
  0.319999993       4.55169756E-14
  0.479999989       2.37200261E-13
  0.639999986       2.57332513E-13
  0.800000012      -2.76393779E-14
  0.959999979      -4.59024474E-13
   1.12000000      -6.18016543E-13
   1.27999997      -1.71893627E-13
   1.44000006       7.15763820E-13
   1.60000002       1.32494081E-12
   1.75999999       8.72262494E-13
   1.91999996      -7.17939326E-13
   2.07999992      -2.40871711E-12
   2.24000001      -2.55698587E-12
   2.40000010      -2.46942251E-13
   2.55999994       3.45401420E-12
   2.72000003       5.58504545E-12
   2.88000011       3.31192170E-12
   3.03999996      -3.18980823E-12
   3.20000005      -9.50561678E-12
   3.35999990      -9.47141671E-12
   3.51999998      -5.33476258E-13
   3.68000007       1.22772981E-11
   3.83999991       1.83721614E-11
   4.00000000       9.83831679E-12
   4.15999985      -1.01810114E-11
   4.32000017      -2.71118267E-11
   4.48000002      -2.51699148E-11
   4.63999987      -1.19829732E-12
   4.80000019       2.97683683E-11
   4.96000004       4.36795114E-11
   5.11999989       2.56997115E-11
   5.28000021      -1.65950621E-11
   5.44000006      -5.60273147E-11
   5.59999990      -6.33415889E-11
   5.76000023      -2.71153846E-11
   5.92000008       3.73174928E-11
   6.07999992       9.47803849E-11
   6.23999977       1.07842693E-10
   6.40000010       5.59092009E-11
   6.55999994      -5.11228213E-11
   6.71999979      -1.68751235E-10
   6.88000011      -2.28008779E-10
   7.03999996      -1.64773653E-10
   7.19999981       3.55705014E-11
   7.36000013       3.01037389E-10
   7.51999998       4.80627815E-10
   7.67999983       4.19034418E-10
   7.84000015       7.08824249E-11
   8.00000000      -4.25753460E-10
   8.15999985      -7.96005817E-10
   8.31999969      -7.94714683E-10
   8.47999954      -3.83727161E-10
   8.64000034       2.25873931E-10
   8.80000019       7.19499682E-10
   8.96000004       9.04696706E-10
   9.11999989       8.26200330E-10
   9.27999973       6.69003908E-10
   9.43999958       5.40429368E-10
   9.60000038       3.37513573E-10
   9.76000023      -1.71119521E-10
   9.92000008      -1.11575049E-09
   10.0799999      -2.33865194E-09
   10.2399998      -3.38167672E-09
   10.3999996      -3.62448027E-09
   10.5600004      -2.46857912E-09
   10.7200003       4.84808582E-10
   10.8800001       5.24326493E-09
   11.0400000       1.12393437E-08
   11.1999998       1.72937913E-08
   11.3599997       2.18747314E-08
   11.5200005       2.35893580E-08
   11.6800003       2.15425260E-08
   11.8400002       1.50905883E-08
   12.0000000       2.76676482E-09
   12.1599998      -1.94020338E-08
   12.3199997      -5.97030692E-08
   12.4799995      -1.32395741E-07
   12.6400003      -2.59594572E-07
   12.8000002      -4.74485574E-07
   12.9600000      -8.27348799E-07
   13.1199999      -1.39560098E-06
   13.2799997      -2.29837201E-06
   13.4399996      -3.71553983E-06
   13.6000004      -5.91123762E-06
   13.7600002      -9.26262874E-06
   13.9200001      -1.42955732E-05
   14.0799999      -2.17286106E-05
   14.2399998      -3.25249421E-05
   14.3999996      -4.79492519E-05
   14.5600004      -6.96231291E-05
   14.7200003      -9.95705268E-05
   14.8800001      -1.40242773E-04
   15.0400000      -1.94510882E-04
   15.1999998      -2.65610841E-04
   15.3599997      -3.57027020E-04
   15.5200005      -4.72300017E-04
   15.6800003      -6.14749966E-04
   15.8400002      -7.87112804E-04
   16.0000000      -9.91098466E-04
   16.1599998      -1.22689118E-03
   16.3199997      -1.49262708E-03
   16.4799995      -1.78389996E-03
   16.6399994      -2.09335750E-03
   16.7999992      -2.41045770E-03
   16.9599991      -2.72145309E-03
   17.1200008      -3.00966529E-03
   17.2800007      -3.25608556E-03
   17.4400005      -3.44031933E-03
   17.6000004      -3.54185235E-03
   17.7600002      -3.54157458E-03
   17.9200001      -3.42346262E-03
   18.0799999      -3.17627029E-03
   18.2399998      -2.79506994E-03
   18.3999996      -2.28246977E-03
   18.5599995      -1.64934364E-03
   18.7199993      -9.14946606E-04
   18.8799992      -1.06336942E-04
   19.0400009       7.42908334E-04
   19.2000008       1.59462448E-03
   19.3600006       2.40850216E-03
   19.5200005       3.14485049E-03
   19.6800003       3.76743684E-03
   19.8400002       4.24614409E-03
   20.0000000       4.55919467E-03
   20.1599998       4.69472725E-03
   20.3199997       4.65156883E-03
   20.4799995       4.43914067E-03
   20.6399994       4.07650601E-03
   20.7999992       3.59065505E-03
   20.9599991       3.01421317E-03
   21.1200008       2.38278741E-03
   21.2800007       1.73221692E-03
   21.4400005       1.09598087E-03
   21.6000004       5.02984505E-04
   21.7600002      -2.40984955E-05
   21.9200001      -4.69814113E-04
   22.0799999      -8.26204021E-04
   22.2399998      -1.09239866E-03
   22.3999996      -1.27361948E-03
   22.5599995      -1.37973577E-03
   22.7199993      -1.42355147E-03
   22.8799992      -1.41900720E-03
   23.0400009      -1.37948268E-03
   23.2000008      -1.31636497E-03
   23.3600006      -1.23801909E-03
   23.5200005      -1.14924845E-03
   23.6800003      -1.05128298E-03
   23.8400002      -9.42271436E-04
   24.0000000      -8.18205241E-04
   24.1599998      -6.74151117E-04
   24.3199997      -5.05636912E-04
   24.4799995      -3.10009695E-04
   24.6399994      -8.75824262E-05
   24.7999992       1.57594230E-04
   24.9599991       4.17462114E-04
   25.1200008       6.80253666E-04
   25.2800007       9.31357092E-04
   25.4400005       1.15467364E-03
   25.6000004       1.33431877E-03
   25.7600002       1.45646301E-03
   25.9200001       1.51107076E-03
   26.0799999       1.49329449E-03
   26.2399998       1.40431023E-03
   26.3999996       1.25144608E-03
   26.5599995       1.04753755E-03
   26.7199993       8.09551100E-04
   26.8799992       5.56625368E-04
   27.0400009       3.07772367E-04
   27.2000008       7.95449814E-05
   27.3600006      -1.16000694E-04
   27.5200005      -2.72741425E-04
   27.6800003      -3.91076872E-04
   27.8400002      -4.77536028E-04
   28.0000000      -5.43399306E-04
   28.1599998      -6.02486660E-04
   28.3199997      -6.68399560E-04
   28.4799995      -7.51604442E-04
   28.6399994      -8.56792671E-04
   28.7999992      -9.80943558E-04
   28.9599991      -1.11244561E-03
   29.1200008      -1.23150425E-03
   29.2800007      -1.31188927E-03
   29.4400005      -1.32388854E-03
   29.6000004      -1.23815809E-03
   29.7600002      -1.03001681E-03
   29.9200001      -6.83654333E-04
   30.0799999      -1.95697517E-04
   30.2399998       4.22366807E-04
   30.3999996       1.14328763E-03
   30.5599995       1.92486565E-03
   30.7199993       2.71248352E-03
   30.8799992       3.44314077E-03
   31.0400009       4.05061198E-03
   31.2000008       4.47121775E-03
   31.3600006       4.64962097E-03
   31.5200005       4.54407325E-03
   31.6800003       4.13058652E-03
   31.8400002       3.40564968E-03
