 -0.12000000000000000          0.0000000000000000
 -0.11914999999999999          1.0043552971876768E-011
 -0.11830000000000000          3.0534181488852271E-011
 -0.11745000000000000          6.0134364727926425E-011
 -0.11660000000000000          9.5241451782297601E-011
 -0.11574999999999999          1.2958200946689837E-010
 -0.11490000000000000          1.5418580329900948E-010
 -0.11405000000000000          1.5795997821517896E-010
 -0.11320000000000000          1.2895562012202110E-010
 -0.11234999999999999          5.6238939045805417E-011
 -0.11150000000000000         -6.7912706533299160E-011
 -0.11065000000000000         -2.4591154885576665E-010
 -0.10979999999999999         -4.7333359135952751E-010
 -0.10894999999999999         -7.3838073461138316E-010
 -0.10810000000000000         -1.0225790318778144E-009
 -0.10725000000000000         -1.3027198878630061E-009
 -0.10639999999999999         -1.5537950473421779E-009
 -0.10554999999999999         -1.7524626935700883E-009
 -0.10470000000000000         -1.8804689415897974E-009
 -0.10385000000000000         -1.9274560442350713E-009
 -0.10299999999999999         -1.8927263939345402E-009
 -0.10214999999999999         -1.7857622390397046E-009
 -0.10130000000000000         -1.6255641241479911E-009
 -0.10045000000000000         -1.4391137518879353E-009
  -9.9599999999999994E-002    -1.2594334680900493E-009
  -9.8750000000000004E-002    -1.1237522901698643E-009
  -9.7900000000000001E-002    -1.0722003691276653E-009
  -9.7049999999999997E-002    -1.1473164660678711E-009
  -9.6199999999999994E-002    -1.3943494436814408E-009
  -9.5349999999999990E-002    -1.8622042705113509E-009
  -9.4500000000000001E-002    -2.6046489356892110E-009
  -9.3649999999999997E-002    -3.6813481488969474E-009
  -9.2799999999999994E-002    -5.1584109177669529E-009
  -9.1950000000000004E-002    -7.1081676368204994E-009
  -9.1100000000000000E-002    -9.6081775081393822E-009
  -9.0249999999999997E-002    -1.2739738954611332E-008
  -8.9399999999999993E-002    -1.6586120742502546E-008
  -8.8549999999999990E-002    -2.1231240400393365E-008
  -8.7700000000000000E-002    -2.6759066051679501E-008
  -8.6849999999999997E-002    -3.3254290865576518E-008
  -8.5999999999999993E-002    -4.0804635399587647E-008
  -8.5150000000000003E-002    -4.9504797206033548E-008
  -8.4300000000000000E-002    -5.9462174710950820E-008
  -8.3449999999999996E-002    -7.0803934032140985E-008
  -8.2600000000000007E-002    -8.3685404523473992E-008
  -8.1749999999999989E-002    -9.8298758616007763E-008
  -8.0900000000000000E-002    -1.1488276781861506E-007
  -8.0049999999999996E-002    -1.3373135604048846E-007
  -7.9199999999999993E-002    -1.5520241511955053E-007
  -7.8350000000000003E-002    -1.7972541404103056E-007
  -7.7499999999999999E-002    -2.0780742098556213E-007
  -7.6649999999999996E-002    -2.4003787891146881E-007
  -7.5800000000000006E-002    -2.7709376061740653E-007
  -7.4949999999999989E-002    -3.1974207198071859E-007
  -7.4099999999999999E-002    -3.6884469112277169E-007
  -7.3249999999999996E-002    -4.2536141075300533E-007
  -7.2399999999999992E-002    -4.9035747531268751E-007
  -7.1550000000000002E-002    -5.6501220109153514E-007
  -7.0699999999999999E-002    -6.5063315962874787E-007
  -6.9849999999999995E-002    -7.4867018731768244E-007
  -6.9000000000000006E-002    -8.6073745010573595E-007
  -6.8149999999999988E-002    -9.8863489939713205E-007
  -6.7299999999999999E-002    -1.1343763328195342E-006
  -6.6449999999999995E-002    -1.3002158293759750E-006
  -6.5599999999999992E-002    -1.4886751803572173E-006
  -6.4750000000000002E-002    -1.7025761777108880E-006
  -6.3899999999999998E-002    -1.9450616346541438E-006
  -6.3049999999999995E-002    -2.2196276805922022E-006
  -6.2199999999999998E-002    -2.5301498877669421E-006
  -6.1350000000000002E-002    -2.8809082146653856E-006
  -6.0499999999999998E-002    -3.2766148602406452E-006
  -5.9650000000000002E-002    -3.7224553205335216E-006
  -5.8799999999999998E-002    -4.2240971543258870E-006
  -5.7950000000000002E-002    -4.7877408172680758E-006
  -5.7099999999999998E-002    -5.4201413599053179E-006
  -5.6249999999999994E-002    -6.1286416684508206E-006
  -5.5400000000000005E-002    -6.9211986257570123E-006
  -5.4550000000000001E-002    -7.8064038487410114E-006
  -5.3699999999999998E-002    -8.7935237422736599E-006
  -5.2849999999999994E-002    -9.8924758877121930E-006
  -5.2000000000000005E-002    -1.1113876469988416E-005
  -5.1150000000000001E-002    -1.2469015926406653E-005
  -5.0299999999999997E-002    -1.3969871633911372E-005
  -4.9449999999999994E-002    -1.5629090431187575E-005
  -4.8600000000000004E-002    -1.7459986255722930E-005
  -4.7750000000000001E-002    -1.9476528375064555E-005
  -4.6899999999999997E-002    -2.1693267768398380E-005
  -4.6049999999999994E-002    -2.4125349675075632E-005
  -4.5200000000000004E-002    -2.6788450983782750E-005
  -4.4350000000000001E-002    -2.9698672996524184E-005
  -4.3499999999999997E-002    -3.2872492796847376E-005
  -4.2649999999999993E-002    -3.6326646095128025E-005
  -4.1800000000000004E-002    -4.0077974450915862E-005
  -4.0950000000000000E-002    -4.4143313900225651E-005
  -4.0099999999999997E-002    -4.8539209727739879E-005
  -3.9249999999999993E-002    -5.3281838887042561E-005
  -3.8400000000000004E-002    -5.8386676058522755E-005
  -3.7550000000000000E-002    -6.3868380865233373E-005
  -3.6699999999999997E-002    -6.9740369463774441E-005
  -3.5850000000000007E-002    -7.6014634259978950E-005
  -3.5000000000000003E-002    -8.2701317805039100E-005
  -3.4150000000000000E-002    -8.9808628685286588E-005
  -3.3299999999999996E-002    -9.7342250355204467E-005
  -3.2450000000000007E-002    -1.0530510901717775E-004
  -3.1600000000000003E-002    -1.1369699934217701E-004
  -3.0750000000000000E-002    -1.2251414867648597E-004
  -2.9899999999999996E-002    -1.3174882430611230E-004
  -2.9050000000000006E-002    -1.4138906473944732E-004
  -2.8200000000000003E-002    -1.5141810316265705E-004
  -2.7349999999999999E-002    -1.6181426369775797E-004
  -2.6499999999999996E-002    -1.7255031030144856E-004
  -2.5650000000000006E-002    -1.8359318356000220E-004
  -2.4800000000000003E-002    -1.9490360222579949E-004
  -2.3949999999999999E-002    -2.0643592724618496E-004
  -2.3099999999999996E-002    -2.1813800206744725E-004
  -2.2250000000000006E-002    -2.2995055325857413E-004
  -2.1400000000000002E-002    -2.4180730813280619E-004
  -2.0549999999999999E-002    -2.5363491538072432E-004
  -1.9699999999999995E-002    -2.6535288884410591E-004
  -1.8850000000000006E-002    -2.7687405750368099E-004
  -1.8000000000000002E-002    -2.8810379902871277E-004
  -1.7149999999999999E-002    -2.9894111328657462E-004
  -1.6299999999999995E-002    -3.0927895626450770E-004
  -1.5450000000000005E-002    -3.1900397315646155E-004
  -1.4600000000000002E-002    -3.2799784313106216E-004
  -1.3749999999999998E-002    -3.3613758744457570E-004
  -1.2899999999999995E-002    -3.4329628368715698E-004
  -1.2050000000000005E-002    -3.4934387454928559E-004
  -1.1200000000000002E-002    -3.5414865186162250E-004
  -1.0349999999999998E-002    -3.5757709785638541E-004
  -9.5000000000000084E-003    -3.5949714682646241E-004
  -8.6500000000000049E-003    -3.5977785333113561E-004
  -7.8000000000000014E-003    -3.5829138216564131E-004
  -6.9499999999999978E-003    -3.5491377451425557E-004
  -6.1000000000000082E-003    -3.4952760193287245E-004
  -5.2500000000000047E-003    -3.4202271055083739E-004
  -4.4000000000000011E-003    -3.3229841859194645E-004
  -3.5499999999999976E-003    -3.2026467471098718E-004
  -2.7000000000000079E-003    -3.0584354625626660E-004
  -1.8500000000000044E-003    -2.8897088668061808E-004
  -1.0000000000000009E-003    -2.6959834852438070E-004
  -1.4999999999999736E-004    -2.4769456533680115E-004
   6.9999999999999230E-004    -2.2324588057217633E-004
   1.5499999999999958E-003    -1.9625896070404989E-004
   2.3999999999999994E-003    -1.6675992162033256E-004
   3.2500000000000029E-003    -1.3479728150752262E-004
   4.0999999999999925E-003    -1.0044151442612444E-004
   4.9499999999999961E-003    -6.3786354674813311E-005
   5.7999999999999996E-003    -2.4948337813247379E-005
   6.6499999999999893E-003     1.5932492683040343E-005
   7.5000000000000067E-003     5.8692182717404412E-005
   8.3499999999999963E-003     1.0314469600842152E-004
   9.1999999999999860E-003     1.4908162985667221E-004
   1.0050000000000003E-002     1.9627314286774846E-004
   1.0899999999999993E-002     2.4446942640756267E-004
   1.1750000000000010E-002     2.9340200887509891E-004
   1.2600000000000000E-002     3.4278594315399286E-004
   1.3449999999999990E-002     3.9232125517534835E-004
   1.4300000000000007E-002     4.4169544462241390E-004
   1.5149999999999997E-002     4.9058563531003026E-004
   1.5999999999999986E-002     5.3866205879453464E-004
   1.6850000000000004E-002     5.8558982798933071E-004
   1.7699999999999994E-002     6.3103260811830529E-004
   1.8549999999999983E-002     6.7465558725597597E-004
   1.9400000000000001E-002     7.1612826797115765E-004
   2.0249999999999990E-002     7.5512799978983921E-004
   2.1100000000000008E-002     7.9134349965907303E-004
   2.1949999999999997E-002     8.2447753506696166E-004
   2.2799999999999987E-002     8.5425010081417155E-004
   2.3650000000000004E-002     8.8040162979017580E-004
   2.4499999999999994E-002     9.0269554783998498E-004
   2.5349999999999984E-002     9.2092148748315194E-004
   2.6200000000000001E-002     9.3489658746771613E-004
   2.7049999999999991E-002     9.4446898800665420E-004
   2.7900000000000008E-002     9.4951912393327978E-004
   2.8749999999999998E-002     9.4996112622519136E-004
   2.9599999999999987E-002     9.4574463431846331E-004
   3.0450000000000005E-002     9.3685422966670144E-004
   3.1299999999999994E-002     9.2331205636071820E-004
   3.2149999999999984E-002     9.0517592840251256E-004
   3.3000000000000002E-002     8.8253988852525153E-004
   3.3849999999999991E-002     8.5553385852004803E-004
   3.4700000000000009E-002     8.2432162681388176E-004
   3.5549999999999998E-002     7.8910006017401946E-004
   3.6399999999999988E-002     7.5009718047204196E-004
   3.7250000000000005E-002     7.0757031969591495E-004
   3.8099999999999995E-002     6.6180330823650921E-004
   3.8949999999999985E-002     6.1310413337094965E-004
   3.9800000000000002E-002     5.6180123766691860E-004
   4.0649999999999992E-002     5.0824159549970563E-004
   4.1500000000000009E-002     4.5278596113258301E-004
   4.2349999999999999E-002     3.9580649509904451E-004
   4.3199999999999988E-002     3.3768240799597680E-004
   4.4050000000000006E-002     2.7879758551964547E-004
   4.4899999999999995E-002     2.1953567861101122E-004
   4.5749999999999985E-002     1.6027795660695772E-004
   4.6600000000000003E-002     1.0139859667616019E-004
   4.7449999999999992E-002     4.3261276885419518E-005
   4.8299999999999982E-002    -1.3782146353985325E-005
   4.9149999999999999E-002    -6.9396623487371796E-005
   4.9999999999999989E-002    -1.2326544101380136E-004
   5.0850000000000006E-002    -1.7509291223772531E-004
   5.1699999999999996E-002    -2.2460769160237361E-004
   5.2549999999999986E-002    -2.7156164906081380E-004
   5.3400000000000003E-002    -3.1573509415266482E-004
   5.4249999999999993E-002    -3.5693535664314818E-004
   5.5099999999999982E-002    -3.9499896688878028E-004
   5.5950000000000000E-002    -4.2979179039023504E-004
   5.6799999999999989E-002    -4.6120916116481865E-004
   5.7650000000000007E-002    -4.8917585371201157E-004
   5.8499999999999996E-002    -5.1364617630461976E-004
   5.9349999999999986E-002    -5.3460284876513686E-004
   6.0200000000000004E-002    -5.5205665600506102E-004
   6.1049999999999993E-002    -5.6604419172740471E-004
   6.1899999999999983E-002    -5.7662717018473861E-004
   6.2750000000000000E-002    -5.8389131447141311E-004
   6.3599999999999990E-002    -5.8794322452467419E-004
   6.4450000000000007E-002    -5.8890923819979223E-004
   6.5299999999999997E-002    -5.8693339629092367E-004
   6.6149999999999987E-002    -5.8217520177072891E-004
   6.7000000000000004E-002    -5.7480745165415796E-004
   6.7849999999999994E-002    -5.6501389682389797E-004
   6.8699999999999983E-002    -5.5298684214035332E-004
   6.9550000000000001E-002    -5.3892560085229803E-004
   7.0399999999999990E-002    -5.2303359020497940E-004
   7.1249999999999980E-002    -5.0551699225219156E-004
   7.2099999999999997E-002    -4.8658209074849514E-004
   7.2949999999999987E-002    -4.6643378338109462E-004
   7.3800000000000004E-002    -4.4527386185098125E-004
   7.4649999999999994E-002    -4.2329938555883169E-004
   7.5499999999999984E-002    -4.0070095819251387E-004
   7.6350000000000001E-002    -3.7766171359237334E-004
   7.7199999999999991E-002    -3.5435597420334705E-004
   7.8049999999999981E-002    -3.3094837736981917E-004
   7.8899999999999998E-002    -3.0759319314917829E-004
   7.9749999999999988E-002    -2.8443316427015651E-004
   8.0600000000000005E-002    -2.6159957065937197E-004
   8.1449999999999995E-002    -2.3921153359466533E-004
   8.2299999999999984E-002    -2.1737610375065301E-004
   8.3150000000000002E-002    -1.9618797933130616E-004
   8.3999999999999991E-002    -1.7572966367011004E-004
   8.4849999999999981E-002    -1.5607175178254150E-004
   8.5699999999999998E-002    -1.3727310943090006E-004
   8.6549999999999988E-002    -1.1938141520347338E-004
   8.7400000000000005E-002    -1.0243337668107347E-004
   8.8249999999999995E-002    -8.6455442848057526E-005
   8.9099999999999985E-002    -7.1464532375344525E-005
   8.9950000000000002E-002    -5.7468482261611274E-005
   9.0799999999999992E-002    -4.4466990378855807E-005
   9.1649999999999981E-002    -3.2451975307975269E-005
   9.2499999999999999E-002    -2.1408683556419122E-005
   9.3349999999999989E-002    -1.1316281154968676E-005
   9.4200000000000006E-002    -2.1484755609048041E-006
   9.5049999999999996E-002     6.1254130122299593E-006
   9.5899999999999985E-002     1.3540160654333670E-005
   9.6750000000000003E-002     2.0133748613019287E-005
   9.7599999999999992E-002     2.5946532699892930E-005
   9.8449999999999982E-002     3.1021099763082181E-005
   9.9299999999999999E-002     3.5401138595101808E-005
  0.10014999999999999          3.9131332210532929E-005
  0.10099999999999998          4.2256625859700928E-005
  0.10185000000000000          4.4821883476765504E-005
  0.10269999999999999          4.6871275145917246E-005
  0.10355000000000000          4.8448324225674121E-005
  0.10439999999999999          4.9595184364693544E-005
  0.10524999999999998          5.0352549036585830E-005
  0.10610000000000000          5.0759666369196442E-005
  0.10694999999999999          5.0853810653752116E-005
  0.10779999999999998          5.0670234401685698E-005
  0.10865000000000000          5.0242335038368466E-005
  0.10949999999999999          4.9601483265373216E-005
  0.11035000000000000          4.8776618705063821E-005
  0.11119999999999999          4.7794828410036312E-005
  0.11204999999999998          4.6680963850754533E-005
  0.11290000000000000          4.5457939244318553E-005
  0.11374999999999999          4.4146557443049037E-005
  0.11459999999999998          4.2765692611116857E-005
  0.11545000000000000          4.1332352617638942E-005
  0.11629999999999999          3.9861884031467187E-005
  0.11715000000000000          3.8367921900276537E-005
  0.11799999999999999          3.6862630548586889E-005
  0.11884999999999998          3.5356584050633775E-005
  0.11970000000000000          3.3859111178581033E-005
  0.12054999999999999          3.2378430392007197E-005
  0.12139999999999998          3.0921525639413585E-005
  0.12225000000000000          2.9494352542461037E-005
  0.12309999999999999          2.8101931317341606E-005
  0.12395000000000000          2.6748497211141978E-005
  0.12479999999999999          2.5437450465948479E-005
  0.12564999999999998          2.4171507781393819E-005
  0.12650000000000000          2.2952900365339444E-005
  0.12734999999999999          2.1783105315884199E-005
  0.12819999999999998          2.0663287776380269E-005
  0.12905000000000000          1.9594005787704160E-005
  0.12989999999999999          1.8575404062791290E-005
  0.13074999999999998          1.7607252319821029E-005
  0.13159999999999999          1.6688971992835710E-005
  0.13245000000000001          1.5819661088175398E-005
  0.13329999999999997          1.4998141592055735E-005
  0.13414999999999999          1.4223012517328187E-005
  0.13500000000000001          1.3492659618237742E-005
  0.13584999999999997          1.2805371148188745E-005
  0.13669999999999999          1.2159277283489611E-005
  0.13755000000000001          1.1552485665342168E-005
  0.13839999999999997          1.0983012028148286E-005
  0.13924999999999998          1.0448837384245973E-005
  0.14010000000000000          9.9478877918359787E-006
  0.14094999999999996          9.4781474326088118E-006
  0.14179999999999998          9.0375403151629167E-006
  0.14265000000000000          8.6240523777356300E-006
  0.14350000000000002          8.2357310779654081E-006
  0.14434999999999998          7.8706988925691745E-006
  0.14520000000000000          7.5271599948284525E-006
  0.14605000000000001          7.2035089805901445E-006
  0.14689999999999998          6.8982437852400993E-006
  0.14774999999999999          6.6100204197539202E-006
  0.14860000000000001          6.3376743796570323E-006
  0.14944999999999997          6.0801687360384484E-006
  0.15029999999999999          5.8366266062672511E-006
  0.15115000000000001          5.6062536401782763E-006
  0.15199999999999997          5.3883793359042323E-006
  0.15284999999999999          5.1824215689517838E-006
  0.15370000000000000          4.9878525766942554E-006
  0.15454999999999997          4.8042073832266515E-006
  0.15539999999999998          4.6310527328580212E-006
  0.15625000000000000          4.4680057041679554E-006
  0.15709999999999996          4.3146656131152431E-006
  0.15794999999999998          4.1706787002691633E-006
  0.15880000000000000          4.0356700826513191E-006
  0.15965000000000001          3.9092315318905831E-006
  0.16049999999999998          3.7909277668275831E-006
  0.16134999999999999          3.6802571330349422E-006
  0.16220000000000001          3.5767018740851757E-006
  0.16304999999999997          3.4796636258731211E-006
  0.16389999999999999          3.3885202999383294E-006
  0.16475000000000001          3.3026186826525353E-006
  0.16559999999999997          3.2212773180379289E-006
  0.16644999999999999          3.1438055392375438E-006
  0.16730000000000000          3.0695134642809190E-006
  0.16814999999999997          2.9977069743505579E-006
  0.16899999999999998          2.9277027324763346E-006
  0.16985000000000000          2.8588617211481416E-006
  0.17069999999999996          2.7905752224615166E-006
  0.17154999999999998          2.7222582091498898E-006
  0.17240000000000000          2.6534247276609630E-006
  0.17325000000000002          2.5836208009626891E-006
  0.17409999999999998          2.5125049000688808E-006
  0.17494999999999999          2.4398257804935956E-006
  0.17580000000000001          2.3654445127140771E-006
  0.17664999999999997          2.2892940291995788E-006
  0.17749999999999999          2.2114333166564267E-006
  0.17835000000000001          2.1320281987192725E-006
  0.17919999999999997          2.0513130543292441E-006
  0.18004999999999999          1.9696055481899175E-006
  0.18090000000000001          1.8872790828274769E-006
  0.18174999999999997          1.8047711878739485E-006
  0.18259999999999998          1.7225587538361369E-006
  0.18345000000000000          1.6411682568155264E-006
  0.18429999999999996          1.5611286422566142E-006
  0.18514999999999998          1.4829922543053894E-006
  0.18600000000000000          1.4073098098441543E-006
  0.18684999999999996          1.3345884014536165E-006
  0.18769999999999998          1.2652919496231008E-006
  0.18855000000000000          1.1998207593645134E-006
  0.18940000000000001          1.1384877210934176E-006
  0.19024999999999997          1.0815117821743129E-006
  0.19109999999999999          1.0290312158680263E-006
  0.19195000000000001          9.8107680080698727E-007
  0.19279999999999997          9.3760390863065967E-007
  0.19364999999999999          8.9850168155473587E-007
  0.19450000000000001          8.6361058527177438E-007
  0.19534999999999997          8.3270951027395117E-007
  0.19619999999999999          8.0555936565826715E-007
  0.19705000000000000          7.8186849832716219E-007
  0.19789999999999996          7.6131150842473837E-007
  0.19874999999999998          7.4352823515760540E-007
  0.19960000000000000          7.2812390301354571E-007
  0.20044999999999996          7.1468310767074309E-007
  0.20129999999999998          7.0278653343518078E-007
  0.20215000000000000          6.9201284181014519E-007
  0.20300000000000001          6.8199056035959836E-007
  0.20384999999999998          6.7238975593459891E-007
  0.20469999999999999          6.6296136382089316E-007
  0.20555000000000001          6.5355643803546636E-007
  0.20639999999999997          6.4411642361738481E-007
  0.20724999999999999          6.3469058097440983E-007
  0.20810000000000001          6.2538558098952599E-007
  0.20894999999999997          6.1638085869558976E-007
  0.20979999999999999          6.0790403095420521E-007
  0.21065000000000000          6.0018051527798259E-007
  0.21149999999999997          5.9344334528092812E-007
  0.21234999999999998          5.8790226572894467E-007
  0.21320000000000000          5.8373943385834859E-007
  0.21404999999999996          5.8110589735645141E-007
  0.21489999999999998          5.8010324674053283E-007
  0.21575000000000000          5.8080016984377874E-007
  0.21659999999999996          5.8322051809752873E-007
  0.21744999999999998          5.8735690944810197E-007
  0.21829999999999999          5.9314864135681309E-007
  0.21915000000000001          6.0049508407110753E-007
  0.21999999999999997          6.0924398725065127E-007
  0.22084999999999999          6.1920158387364806E-007
  0.22170000000000001          6.3011816325125225E-007
  0.22254999999999997          6.4169681056243105E-007
  0.22339999999999999          6.5359733415133000E-007
  0.22425000000000000          6.6544184447668725E-007
  0.22509999999999997          6.7680613276795684E-007
  0.22594999999999998          6.8724947964431370E-007
  0.22680000000000000          6.9630789063440824E-007
  0.22764999999999996          7.0352307869168995E-007
  0.22849999999999998          7.0843989029865422E-007
  0.22935000000000000          7.1064433495275580E-007
  0.23019999999999996          7.0977351287991108E-007
  0.23104999999999998          7.0553253614527412E-007
  0.23190000000000000          6.9771944490909201E-007
  0.23275000000000001          6.8622801950950703E-007
  0.23359999999999997          6.7105546293005661E-007
  0.23444999999999999          6.5230162676515393E-007
  0.23530000000000001          6.3015406787872325E-007
  0.23614999999999997          6.0487609387041478E-007
  0.23699999999999999          5.7678817184662775E-007
  0.23785000000000001          5.4625262323288223E-007
  0.23869999999999997          5.1366247570447867E-007
  0.23954999999999999          4.7942402453535598E-007
  0.24040000000000000          4.4395873067278420E-007
  0.24124999999999996          4.0770154052369279E-007
  0.24209999999999998          3.7110485361893223E-007
  0.24295000000000000          3.3462383995063658E-007
  0.24379999999999996          2.9873758419497853E-007
  0.24464999999999998          2.6392378071750165E-007
  0.24550000000000000          2.3064399113731704E-007
  0.24634999999999996          1.9932922832036684E-007
  0.24719999999999998          1.7036360383521768E-007
  0.24804999999999999          1.4404932222032166E-007
  0.24890000000000001          1.2060800422483466E-007
  0.24974999999999997          1.0015406585318361E-007
  0.25059999999999999          8.2707431308155168E-008
  0.25145000000000001          6.8184578980660418E-008
  0.25229999999999997          5.6431587117023580E-008
  0.25314999999999999          4.7230959261979632E-008
  0.25400000000000000          4.0318054466495443E-008
  0.25484999999999997          3.5415199154346169E-008
  0.25569999999999998          3.2236608897815385E-008
  0.25655000000000000          3.0504096585667270E-008
  0.25739999999999996          2.9960595545409252E-008
  0.25824999999999998          3.0366300558055744E-008
  0.25910000000000000          3.1514034504929063E-008
  0.25994999999999996          3.3217094220196401E-008
  0.26079999999999998          3.5323297090173563E-008
  0.26164999999999999          3.7713378483245117E-008
  0.26249999999999996          4.0303230692361000E-008
  0.26334999999999997          4.3043168424429626E-008
  0.26419999999999999          4.5926191103215082E-008
  0.26505000000000001          4.8981202777517190E-008
  0.26589999999999997          5.2270783786014824E-008
  0.26674999999999999          5.5889159746892079E-008
  0.26760000000000000          5.9955939180518604E-008
  0.26844999999999997          6.4606723879038105E-008
  0.26929999999999998          6.9984318861943416E-008
  0.27015000000000000          7.6239725977627436E-008
  0.27099999999999996          8.3517723474296491E-008
  0.27184999999999998          9.1950712307408494E-008
  0.27270000000000000          1.0165255282637223E-007
  0.27354999999999996          1.1270923610150596E-007
  0.27439999999999998          1.2516623682111798E-007
  0.27524999999999999          1.3902729851750588E-007
  0.27609999999999996          1.5424238867366118E-007
  0.27694999999999997          1.7070653291929168E-007
  0.27779999999999999          1.8824962273795714E-007
  0.27865000000000001          2.0665502004013291E-007
  0.27949999999999997          2.2564897491436063E-007
  0.28034999999999999          2.4492265110463327E-007
  0.28120000000000001          2.6413904553422184E-007
  0.28204999999999997          2.8294323023822276E-007
  0.28289999999999998          3.0097459709913152E-007
  0.28375000000000000          3.1787708213103376E-007
  0.28459999999999996          3.3330826826166746E-007
  0.28544999999999998          3.4694132133920131E-007
  0.28630000000000000          3.5846997279762002E-007
  0.28714999999999996          3.6761167901041580E-007
  0.28799999999999998          3.7412145166384983E-007
  0.28885000000000000          3.7778666184027808E-007
  0.28969999999999996          3.7844170435600279E-007
  0.29054999999999997          3.7597969834876992E-007
  0.29139999999999999          3.7035019738813252E-007
  0.29224999999999995          3.6157256834154986E-007
  0.29309999999999997          3.4973877058166747E-007
  0.29394999999999999          3.3500660278721822E-007
  0.29480000000000001          3.1759620756545192E-007
  0.29564999999999997          2.9778747883517293E-007
  0.29649999999999999          2.7590138157731628E-007
  0.29735000000000000          2.5229681161182797E-007
  0.29819999999999997          2.2735200962963598E-007
  0.29904999999999998          2.0146176548586872E-007
  0.29990000000000000          1.7502233093183240E-007
  0.30074999999999996          1.4842818948647861E-007
  0.30159999999999998          1.2206490334925796E-007
  0.30245000000000000          9.6299702589814452E-008
  0.30329999999999996          7.1467354406887775E-008
  0.30414999999999998          4.7873596436999835E-008
  0.30499999999999999          2.5779837360034876E-008
  0.30584999999999996          5.3895415194812036E-009
  0.30669999999999997         -1.3145101108318294E-008
  0.30754999999999999         -2.9734545776737324E-008
  0.30840000000000001         -4.4348592463770018E-008
  0.30924999999999997         -5.7009368890342605E-008
  0.31009999999999999         -6.7787068470147681E-008
  0.31095000000000000         -7.6786146167975193E-008
  0.31179999999999997         -8.4135081907944894E-008
  0.31264999999999998         -8.9978554010325131E-008
  0.31350000000000000         -9.4465209699399561E-008
  0.31434999999999996         -9.7742302874899232E-008
  0.31519999999999998         -9.9951439518274814E-008
  0.31605000000000000         -1.0122661868592360E-007
  0.31689999999999996         -1.0168751710142081E-007
  0.31774999999999998         -1.0144079436892550E-007
  0.31859999999999999         -1.0057513209570717E-007
  0.31944999999999996         -9.9164309849303720E-008
  0.32029999999999997         -9.7254361352261777E-008
  0.32114999999999999         -9.4869094403816894E-008
  0.32199999999999995         -9.2002209679775753E-008
  0.32284999999999997         -8.8622147799664894E-008
  0.32369999999999999         -8.4672124424212740E-008
  0.32455000000000001         -8.0075479482425840E-008
  0.32539999999999997         -7.4736274935928317E-008
  0.32624999999999998         -6.8556720925400793E-008
  0.32710000000000000         -6.1432860349927773E-008
  0.32794999999999996         -5.3270754893120469E-008
  0.32879999999999998         -4.3985400580923440E-008
  0.32965000000000000         -3.3513899793017467E-008
  0.33049999999999996         -2.1813531995334366E-008
  0.33134999999999998         -8.8680218745479858E-009
  0.33220000000000000          5.3089783292941674E-009
  0.33304999999999996          2.0671378408777857E-008
  0.33389999999999997          3.7137402315048994E-008
  0.33474999999999999          5.4588476915175992E-008
  0.33559999999999995          7.2868330551936668E-008
  0.33644999999999997          9.1782796529328249E-008
  0.33729999999999999          1.1110401032936837E-007
  0.33815000000000001          1.3057415614893875E-007
  0.33899999999999997          1.4991451702723724E-007
  0.33984999999999999          1.6882771202337895E-007
  0.34070000000000000          1.8701185531898150E-007
  0.34154999999999996          2.0416449360528124E-007
  0.34239999999999998          2.1999252243958918E-007