 -0.12000000000000000          0.0000000000000000
 -0.11914999999999999          0.0000000000000000
 -0.11830000000000000          0.0000000000000000
 -0.11745000000000000          0.0000000000000000
 -0.11660000000000000          0.0000000000000000
 -0.11574999999999999          0.0000000000000000
 -0.11490000000000000          0.0000000000000000
 -0.11405000000000000          0.0000000000000000
 -0.11320000000000000         -2.4089161598207978E-033
 -0.11234999999999999         -3.4924046768048643E-032
 -0.11150000000000000         -2.6182751544222849E-031
 -0.11065000000000000         -1.3463134498605246E-030
 -0.10979999999999999         -5.3112277779205141E-030
 -0.10894999999999999         -1.7035050798081118E-029
 -0.10810000000000000         -4.5898497953683043E-029
 -0.10725000000000000         -1.0568992818975284E-028
 -0.10639999999999999         -2.0884159355569548E-028
 -0.10554999999999999         -3.4949162572578942E-028
 -0.10470000000000000         -4.7103846047674851E-028
 -0.10385000000000000         -4.2081271910246499E-028
 -0.10299999999999999          9.0509204642049400E-029
 -0.10214999999999999          1.4852882266181390E-027
 -0.10130000000000000          4.2103882393814997E-027
 -0.10045000000000000          8.4575708619515799E-027
  -9.9599999999999994E-002     1.3678034173896865E-026
  -9.8750000000000004E-002     1.7944147875563052E-026
  -9.7900000000000001E-002     1.7361865977961024E-026
  -9.7049999999999997E-002     5.9277694392819475E-027
  -9.6199999999999994E-002    -2.3608885592654973E-026
  -9.5349999999999990E-002    -7.7283927134018124E-026
  -9.4500000000000001E-002    -1.5549268349447262E-025
  -9.3649999999999997E-002    -2.4685669908477402E-025
  -9.2799999999999994E-002    -3.2168667333555098E-025
  -9.1950000000000004E-002    -3.2770005101960239E-025
  -9.1100000000000000E-002    -1.9196590497218397E-025
  -9.0249999999999997E-002     1.6628547572066842E-025
  -8.9399999999999993E-002     8.0813127612221595E-025
  -8.8549999999999990E-002     1.7318670769584365E-024
  -8.7700000000000000E-002     2.8192474513758798E-024
  -8.6849999999999997E-002     3.7840827038891348E-024
  -8.5999999999999993E-002     4.1452828440564742E-024
  -8.5150000000000003E-002     3.2535757872381798E-024
  -8.4300000000000000E-002     4.0217067574375761E-025
  -8.3449999999999996E-002    -4.9579982894047746E-024
  -8.2600000000000007E-002    -1.2901700040474591E-023
  -8.1749999999999989E-002    -2.2653562532396554E-023
  -8.0900000000000000E-002    -3.2244310471724322E-023
  -8.0049999999999996E-002    -3.8339180879920447E-023
  -7.9199999999999993E-002    -3.6409408501001122E-023
  -7.8350000000000003E-002    -2.1409506531306186E-023
  -7.7499999999999999E-002     1.0944553123471079E-023
  -7.6649999999999996E-002     6.2338795942624782E-023
  -7.5800000000000006E-002     1.2971051263875858E-022
  -7.4949999999999989E-002     2.0326317996258839E-022
  -7.4099999999999999E-002     2.6534022567108253E-022
  -7.3249999999999996E-002     2.9096489710318176E-022
  -7.2399999999999992E-002     2.5078668187948538E-022
  -7.1550000000000002E-002     1.1685895133548040E-022
  -7.0699999999999999E-002    -1.2891217580495183E-022
  -6.9849999999999995E-002    -4.8462183263922408E-022
  -6.9000000000000006E-002    -9.1840714865376775E-022
  -6.8149999999999988E-002    -1.3613697632380505E-021
  -6.7299999999999999E-002    -1.7065251328661708E-021
  -6.6449999999999995E-002    -1.8167673280909345E-021
  -6.5599999999999992E-002    -1.5438712605706201E-021
  -6.4750000000000002E-002    -7.5874037666846801E-022
  -6.3899999999999998E-002     6.0944938680586678E-022
  -6.3049999999999995E-002     2.5305091855104234E-021
  -6.2199999999999998E-002     4.8350341280948939E-021
  -6.1350000000000002E-002     7.1909161581008379E-021
  -6.0499999999999998E-002     9.1053723867770951E-021
  -5.9650000000000002E-002     9.9619011810311772E-021
  -5.8799999999999998E-002     9.0978347306769710E-021
  -5.7950000000000002E-002     5.9221215333550832E-021
  -5.7099999999999998E-002     6.4969330555540232E-023
  -5.6249999999999994E-002    -8.4580234142862806E-021
  -5.5400000000000005E-002    -1.9093518401854191E-020
  -5.4550000000000001E-002    -3.0643178138245717E-020
  -5.3699999999999998E-002    -4.1238313265646580E-020
  -5.2849999999999994E-002    -4.8431491333432448E-020
  -5.2000000000000005E-002    -4.9431452001830922E-020
  -5.1150000000000001E-002    -4.1491137293117276E-020
  -5.0299999999999997E-002    -2.2434535823675141E-020
  -4.9449999999999994E-002     8.7225253426780162E-021
  -4.8600000000000004E-002     5.1135984127453736E-020
  -4.7750000000000001E-002     1.0159140531166452E-019
  -4.6899999999999997E-002     1.5418866351173787E-019
  -4.6049999999999994E-002     2.0039288225986257E-019
  -4.5200000000000004E-002     2.2957372570449464E-019
  -4.4350000000000001E-002     2.3011015060690064E-019
  -4.3499999999999997E-002     1.9106121271095353E-019
  -4.2649999999999993E-002     1.0430399650819609E-019
  -4.1800000000000004E-002    -3.3078648275106421E-020
  -4.0950000000000000E-002    -2.1649111947061333E-019
  -4.0099999999999997E-002    -4.3202002065428503E-019
  -3.9249999999999993E-002    -6.5560000556857529E-019
  -3.8400000000000004E-002    -8.5359057159050298E-019
  -3.7550000000000000E-002    -9.8510469136194674E-019
  -3.6699999999999997E-002    -1.0062354205800999E-018
  -3.5850000000000007E-002    -8.7606709931367278E-019
  -3.5000000000000003E-002    -5.6403678225226333E-019
  -3.4150000000000000E-002    -5.7894715501096053E-020
  -3.3299999999999996E-002     6.2878617782498190E-019
  -3.2450000000000007E-002     1.4508081171954613E-018
  -3.1600000000000003E-002     2.3285885690648272E-018
  -3.0750000000000000E-002     3.1496750526750362E-018
  -2.9899999999999996E-002     3.7755019622877412E-018
  -2.9050000000000006E-002     4.0538488078872923E-018
  -2.8200000000000003E-002     3.8367995735024173E-018
  -2.7349999999999999E-002     3.0031688600123268E-018
  -2.6499999999999996E-002     1.4834778733712577E-018
  -2.5650000000000006E-002    -7.1535334525905823E-019
  -2.4800000000000003E-002    -3.4891562142455305E-018
  -2.3949999999999999E-002    -6.6235413225069473E-018
  -2.3099999999999996E-002    -9.7928562122058326E-018
  -2.2250000000000006E-002    -1.2574513466998085E-017
  -2.1400000000000002E-002    -1.4480907487834819E-017
  -2.0549999999999999E-002    -1.5009090876560843E-017
  -1.9699999999999995E-002    -1.3705819512510636E-017
  -1.8850000000000006E-002    -1.0242595771464212E-017
  -1.8000000000000002E-002    -4.4924185934074454E-018
  -1.7149999999999999E-002     3.4024598853759460E-018
  -1.6299999999999995E-002     1.2983673157806839E-017
  -1.5450000000000005E-002     2.3462468518476651E-017
  -1.4600000000000002E-002     3.3747233583081314E-017
  -1.3749999999999998E-002     4.2517930672044319E-017
  -1.2899999999999995E-002     4.8346327958516620E-017
  -1.2050000000000005E-002     4.9854146173011808E-017
  -1.1200000000000002E-002     4.5893977399971485E-017
  -1.0349999999999998E-002     3.5732485258380900E-017
  -9.5000000000000084E-003     1.9211689736948990E-017
  -8.6500000000000049E-003    -3.1355940668686740E-018
  -7.8000000000000014E-003    -3.0036722624405043E-017
  -6.9499999999999978E-003    -5.9509396705408035E-017
  -6.1000000000000082E-003    -8.8974727847927281E-017
  -5.2500000000000047E-003    -1.1544588347332189E-016
  -4.4000000000000011E-003    -1.3577495953118648E-016
  -3.5499999999999976E-003    -1.4693295815114318E-016
  -2.7000000000000079E-003    -1.4629492999863321E-016
  -1.8500000000000044E-003    -1.3190225853595144E-016
  -1.0000000000000009E-003    -1.0267932637346565E-016
  -1.4999999999999736E-004    -5.8591012969804815E-017
   6.9999999999999230E-004    -7.3495336123196726E-019
   1.5499999999999958E-003     6.8628328583626016E-017
   2.3999999999999994E-003     1.4609790710198457E-016
   3.2500000000000029E-003     2.2719839742575830E-016
   4.0999999999999925E-003     3.0648284584535275E-016
   4.9499999999999961E-003     3.7767151959170014E-016
   5.7999999999999996E-003     4.3383732328404122E-016
   6.6499999999999893E-003     4.6765447925333378E-016
   7.5000000000000067E-003     4.7173202242986258E-016
   8.3499999999999963E-003     4.3905700315574598E-016
   9.1999999999999860E-003     3.6356352401395571E-016
   1.0050000000000003E-002     2.4082973263523291E-016
   1.0899999999999993E-002     6.8886848941514458E-017
   1.1750000000000010E-002    -1.5090262254802617E-016
   1.2600000000000000E-002    -4.1296762277492347E-016
   1.3449999999999990E-002    -7.0674417202100313E-016
   1.4300000000000007E-002    -1.0161183978237561E-015
   1.5149999999999997E-002    -1.3192121561817138E-015
   1.5999999999999986E-002    -1.5886815314965367E-015
   1.6850000000000004E-002    -1.7926405224256224E-015
   1.7699999999999994E-002    -1.8963284594809083E-015
   1.8549999999999983E-002    -1.8645604069542704E-015
   1.9400000000000001E-002    -1.6649409671255838E-015
   2.0249999999999990E-002    -1.2717174415183726E-015
   2.1100000000000008E-002    -6.7003169885657230E-016
   2.1949999999999997E-002     1.3980656574757195E-016
   2.2799999999999987E-002     1.1384423728870426E-015
   2.3650000000000004E-002     2.2845850636158678E-015
   2.4499999999999994E-002     3.5136299735976245E-015
   2.5349999999999984E-002     4.7382935462469139E-015
   2.6200000000000001E-002     5.8516599446140767E-015
   2.7049999999999991E-002     6.7328045178889223E-015
   2.7900000000000008E-002     7.2549055592074340E-015
   2.8749999999999998E-002     7.2954674897377210E-015
   2.9599999999999987E-002     6.7479624225501574E-015
   3.0450000000000005E-002     5.5340286981618444E-015
   3.1299999999999994E-002     3.6150747853687559E-015
   3.2149999999999984E-002     1.0022799439033479E-015
   3.3000000000000002E-002    -2.2362129720438814E-015
   3.3849999999999991E-002    -5.9716206983111723E-015
   3.4700000000000009E-002    -1.0015011777944206E-014
   3.5549999999999998E-002    -1.4122290348912618E-014
   3.6399999999999988E-002    -1.8003540705025759E-014
   3.7250000000000005E-002    -2.1336543015147049E-014
   3.8099999999999995E-002    -2.3783788072388591E-014
   3.8949999999999985E-002    -2.5012428522173000E-014
   3.9800000000000002E-002    -2.4716386651489429E-014
   4.0649999999999992E-002    -2.2639589321398332E-014
   4.1500000000000009E-002    -1.8599657497007052E-014
   4.2349999999999999E-002    -1.2510687742879941E-014
   4.3199999999999988E-002    -4.4040865323528447E-015
   4.4050000000000006E-002     5.5541638591110985E-015
   4.4899999999999995E-002     1.7051259242762444E-014
   4.5749999999999985E-002     2.9622406011179623E-014
   4.6600000000000003E-002     4.2654067724656986E-014
   4.7449999999999992E-002     5.5397240672068326E-014
   4.8299999999999982E-002     6.6991762879963812E-014
   4.9149999999999999E-002     7.6501596700148781E-014
   4.9999999999999989E-002     8.2960762440465367E-014
   5.0850000000000006E-002     8.5427766216001860E-014
   5.1699999999999996E-002     8.3046640931750382E-014
   5.2549999999999986E-002     7.5110846128411984E-014
   5.3400000000000003E-002     6.1126233288334382E-014
   5.4249999999999993E-002     4.0870378495791078E-014
   5.5099999999999982E-002     1.4442680243806333E-014
   5.5950000000000000E-002    -1.7695688104126004E-014
   5.6799999999999989E-002    -5.4696240445596140E-014
   5.7650000000000007E-002    -9.5313647872840544E-014
   5.8499999999999996E-002    -1.3791206930128611E-013
   5.9349999999999986E-002    -1.8049156205020864E-013
   6.0200000000000004E-002    -2.2073244908967343E-013
   6.1049999999999993E-002    -2.5605979212976740E-013
   6.1899999999999983E-002    -2.8372680596300495E-013
   6.2750000000000000E-002    -3.0091991476009901E-013
   6.3599999999999990E-002    -3.0488193161068363E-013
   6.4450000000000007E-002    -2.9305363130496174E-013
   6.5299999999999997E-002    -2.6323005297870430E-013
   6.6149999999999987E-002    -2.1372825840616392E-013
   6.7000000000000004E-002    -1.4355865433653420E-013
   6.7849999999999994E-002    -5.2594593994958503E-014
   6.8699999999999983E-002     5.8270883609561492E-014
   6.9550000000000001E-002     1.8698820915150548E-013
   7.0399999999999990E-002     3.3024683204822916E-013
   7.1249999999999980E-002     4.8341230531904455E-013
   7.2099999999999997E-002     6.4051866510760258E-013
   7.2949999999999987E-002     7.9431677229291710E-013
   7.3800000000000004E-002     9.3639798842338941E-013
   7.4649999999999994E-002     1.0573913809128859E-012
   7.5499999999999984E-002     1.1472397876946564E-012
   7.6350000000000001E-002     1.1955646445921317E-012
   7.7199999999999991E-002     1.1921076262036531E-012
   7.8049999999999981E-002     1.1272496348997641E-012
   7.8899999999999998E-002     9.9260133718191755E-013
   7.9749999999999988E-002     7.8163806139545355E-013
   8.0600000000000005E-002     4.9036600845771979E-013
   8.1449999999999995E-002     1.1798419925456264E-013
   8.2299999999999984E-002    -3.3247933114070511E-013
   8.3150000000000002E-002    -8.5362159492531961E-013
   8.3999999999999991E-002    -1.4332223049151421E-012
   8.4849999999999981E-002    -2.0539834445852536E-012
   8.5699999999999998E-002    -2.6934573208203717E-012
   8.6549999999999988E-002    -3.3242258373320806E-012
   8.7400000000000005E-002    -3.9143733451600632E-012
   8.8249999999999995E-002    -4.4282460476559543E-012
   8.9099999999999985E-002    -4.8275247997156813E-012
   8.9950000000000002E-002    -5.0726071927263595E-012
   9.0799999999999992E-002    -5.1242697349489158E-012
   9.1649999999999981E-002    -4.9455708819089013E-012
   9.2499999999999999E-002    -4.5039533330944743E-012
   9.3349999999999989E-002    -3.7734331788814616E-012
   9.4200000000000006E-002    -2.7367828653440441E-012
   9.5049999999999996E-002    -1.3876726406269949E-012
   9.5899999999999985E-002     2.6749431385077440E-013
   9.6750000000000003E-002     2.2079963520720719E-012
   9.7599999999999992E-002     4.3978005959750838E-012
   9.8449999999999982E-002     6.7850757050323374E-012
   9.9299999999999999E-002     9.3024228785321451E-012
  0.10014999999999999          1.1867944028150602E-011
  0.10099999999999998          1.4386970195034380E-011
  0.10185000000000000          1.6754842691792259E-011
  0.10269999999999999          1.8860301456615666E-011
  0.10355000000000000          2.0589700451471276E-011
  0.10439999999999999          2.1831858681892943E-011
  0.10524999999999998          2.2483363574727893E-011
  0.10610000000000000          2.2454141411904583E-011
  0.10694999999999999          2.1673271317406755E-011
  0.10779999999999998          2.0094533512042882E-011
  0.10865000000000000          1.7701938579891264E-011
  0.10949999999999999          1.4514615203918731E-011
  0.11035000000000000          1.0591140171310743E-011
  0.11119999999999999          6.0333169953325909E-012
  0.11204999999999998          9.8902353382013496E-013
  0.11290000000000000         -4.3454190068063887E-012
  0.11374999999999999         -9.7236731216140909E-012
  0.11459999999999998         -1.4847797252751909E-011
  0.11545000000000000         -1.9367961670966752E-011
  0.11629999999999999         -2.2881579824982057E-011
  0.11715000000000000         -2.4932082780159464E-011
  0.11799999999999999         -2.5007229227282552E-011
  0.11884999999999998         -2.2538102885790644E-011
  0.11970000000000000         -1.6894215394958831E-011
  0.12054999999999999         -7.3810286836065765E-012
  0.12139999999999998          6.7674787718304061E-012
  0.12225000000000000          2.6397801952836273E-011
  0.12309999999999999          5.2443734236322224E-011
  0.12395000000000000          8.5939555803775923E-011
  0.12479999999999999          1.2803632955609132E-010
  0.12564999999999998          1.8001646347700985E-010
  0.12650000000000000          2.4331984591088413E-010
  0.12734999999999999          3.1956020076999218E-010
  0.12819999999999998          4.1055986821207099E-010
  0.12905000000000000          5.1838553299453562E-010
  0.12989999999999999          6.4538341796572757E-010
  0.13074999999999998          7.9423686044989579E-010
  0.13159999999999999          9.6800504244362376E-010
  0.13245000000000001          1.1702022930094173E-009
  0.13329999999999997          1.4048723022218192E-009
  0.13414999999999999          1.6766695085479902E-009
  0.13500000000000001          1.9909664684434355E-009
  0.13584999999999997          2.3539819151384429E-009
  0.13669999999999999          2.7728725916818107E-009
  0.13755000000000001          3.2559358467650746E-009
  0.13839999999999997          3.8127712446816520E-009
  0.13924999999999998          4.4544220033531547E-009
  0.14010000000000000          5.1936689471770381E-009
  0.14094999999999996          6.0452298710085034E-009
  0.14179999999999998          7.0260187834979955E-009
  0.14265000000000000          8.1554854205030166E-009
  0.14350000000000002          9.4558759369757879E-009
  0.14434999999999998          1.0952672024403852E-008
  0.14520000000000000          1.2674974338967843E-008
  0.14605000000000001          1.4655780610662370E-008
  0.14689999999999998          1.6932613217893852E-008
  0.14774999999999999          1.9548046213911582E-008
  0.14860000000000001          2.2550108012221628E-008
  0.14944999999999997          2.5992963549604043E-008
  0.15029999999999999          2.9937727449788930E-008
  0.15115000000000001          3.4452724828447855E-008
  0.15199999999999997          3.9614869997842520E-008
  0.15284999999999999          4.5509774311206379E-008
  0.15370000000000000          5.2233260742280322E-008
  0.15454999999999997          5.9891721111092671E-008
  0.15539999999999998          6.8603779073634363E-008
  0.15625000000000000          7.8500423360566408E-008
  0.15709999999999996          8.9727317231739511E-008
  0.15794999999999998          1.0244436863060506E-007
  0.15880000000000000          1.1682736297069755E-007
  0.15965000000000001          1.3307040237297244E-007
  0.16049999999999998          1.5138490163707250E-007
  0.16134999999999999          1.7200181596752264E-007
  0.16220000000000001          1.9517285901443594E-007
  0.16304999999999997          2.2117102937502038E-007
  0.16389999999999999          2.5029090336233512E-007
  0.16475000000000001          2.8285089169087774E-007
  0.16559999999999997          3.1919316009628680E-007
  0.16644999999999999          3.5968262556140359E-007
  0.16730000000000000          4.0470829741164440E-007
  0.16814999999999997          4.5468215731923532E-007
  0.16899999999999998          5.1004056977647445E-007
  0.16985000000000000          5.7123986714039308E-007
  0.17069999999999996          6.3875688510784446E-007
  0.17154999999999998          7.1308675523087855E-007
  0.17240000000000000          7.9474313353176651E-007
  0.17325000000000002          8.8424834385426319E-007
  0.17409999999999998          9.8214089606244285E-007
  0.17494999999999999          1.0889574221142099E-006
  0.17580000000000001          1.2052397625925967E-006
  0.17664999999999997          1.3315215282917775E-006
  0.17749999999999999          1.4683260289795228E-006
  0.17835000000000001          1.6161607331759661E-006
  0.17919999999999997          1.7755025401314844E-006
  0.18004999999999999          1.9467987021040113E-006
  0.18090000000000001          2.1304509534379059E-006
  0.18174999999999997          2.3268017936454649E-006
  0.18259999999999998          2.5361335230939494E-006
  0.18345000000000000          2.7586489179024988E-006
  0.18429999999999996          2.9944771081605634E-006
  0.18514999999999998          3.2436303052557632E-006
  0.18600000000000000          3.5060078729003555E-006
  0.18684999999999996          3.7813952251515463E-006
  0.18769999999999998          4.0694427589037103E-006
  0.18855000000000000          4.3696605993987168E-006
  0.18940000000000001          4.6813454773225900E-006
  0.19024999999999997          5.0036727084338153E-006
  0.19109999999999999          5.3356109409533412E-006
  0.19195000000000001          5.6759312026983580E-006
  0.19279999999999997          6.0231967082985941E-006
  0.19364999999999999          6.3757830096825761E-006
  0.19450000000000001          6.7318053712491985E-006
  0.19534999999999997          7.0891784584114084E-006
  0.19619999999999999          7.4456088885548129E-006
  0.19705000000000000          7.7985289058804697E-006
  0.19789999999999996          8.1451977538546064E-006
  0.19874999999999998          8.4825568378762623E-006
  0.19960000000000000          8.8074795389745445E-006
  0.20044999999999996          9.1164955616537080E-006
  0.20129999999999998          9.4061252785232250E-006
  0.20215000000000000          9.6725930156399538E-006
  0.20300000000000001          9.9119925871912495E-006
  0.20384999999999998          1.0120395537442659E-005
  0.20469999999999999          1.0293706061066308E-005
  0.20555000000000001          1.0427729233181129E-005
  0.20639999999999997          1.0518329835927425E-005
  0.20724999999999999          1.0561380098284120E-005
  0.20810000000000001          1.0552907490995202E-005
  0.20894999999999997          1.0488830863805103E-005
  0.20979999999999999          1.0365283430878055E-005
  0.21065000000000000          1.0178695763264957E-005
  0.21149999999999997          9.9256294407754523E-006
  0.21234999999999998          9.6029882870290420E-006
  0.21320000000000000          9.2081647163494592E-006
  0.21404999999999996          8.7387716237592475E-006
  0.21489999999999998          8.1928837093674277E-006
  0.21575000000000000          7.5691327578737723E-006
  0.21659999999999996          6.8666532771397414E-006
  0.21744999999999998          6.0851881773022667E-006
  0.21829999999999999          5.2250226188523392E-006
  0.21915000000000001          4.2871742219220197E-006
  0.21999999999999997          3.2733844421919198E-006
  0.22084999999999999          2.1858854255666774E-006
  0.22170000000000001          1.0278839754329015E-006
  0.22254999999999997         -1.9680816463326273E-007
  0.22339999999999999         -1.4836002052430392E-006
  0.22425000000000000         -2.8273065041601802E-006
  0.22509999999999997         -4.2219901941468994E-006
  0.22594999999999998         -5.6608518592123116E-006
  0.22680000000000000         -7.1366550965983843E-006
  0.22764999999999996         -8.6414451284739388E-006
  0.22849999999999998         -1.0166625776629842E-005
  0.22935000000000000         -1.1703172114877061E-005
  0.23019999999999996         -1.3241582297092616E-005
  0.23104999999999998         -1.4771867403517788E-005
  0.23190000000000000         -1.6283844911165466E-005
  0.23275000000000001         -1.7767003290470362E-005
  0.23359999999999997         -1.9210929955256424E-005
  0.23444999999999999         -2.0604884879508142E-005
  0.23530000000000001         -2.1938453587397723E-005
  0.23614999999999997         -2.3201223261334686E-005
  0.23699999999999999         -2.4382997827782350E-005
  0.23785000000000001         -2.5474074615691125E-005
  0.23869999999999997         -2.6465100573686598E-005
  0.23954999999999999         -2.7347277443266882E-005
  0.24040000000000000         -2.8112431579892207E-005
  0.24124999999999996         -2.8753177437933250E-005
  0.24209999999999998         -2.9262929049335370E-005
  0.24295000000000000         -2.9636003646495831E-005
  0.24379999999999996         -2.9867668526824564E-005
  0.24464999999999998         -2.9954214077507188E-005
  0.24550000000000000         -2.9893009299241986E-005
  0.24634999999999996         -2.9682576105734124E-005
  0.24719999999999998         -2.9322424510835224E-005
  0.24804999999999999         -2.8813425459344059E-005
  0.24890000000000001         -2.8157313690263687E-005
  0.24974999999999997         -2.7357265593986751E-005
  0.25059999999999999         -2.6417389445726760E-005
  0.25145000000000001         -2.5343062982482925E-005
  0.25229999999999997         -2.4140604609993520E-005
  0.25314999999999999         -2.2817379388968824E-005
  0.25400000000000000         -2.1381633928864491E-005
  0.25484999999999997         -1.9842682459378192E-005
  0.25569999999999998         -1.8210452055724014E-005
  0.25655000000000000         -1.6495335887885960E-005
  0.25739999999999996         -1.4709046895426840E-005
  0.25824999999999998         -1.2862792726408252E-005
  0.25910000000000000         -1.0969138965218608E-005
  0.25994999999999996         -9.0401757605342411E-006
  0.26079999999999998         -7.0886561103209194E-006
  0.26164999999999999         -5.1270352914050787E-006
  0.26249999999999996         -3.1678675932320636E-006
  0.26334999999999997         -1.2233909019411171E-006
  0.26419999999999999          6.9415855647167153E-007
  0.26505000000000001          2.5732311334486309E-006
  0.26589999999999997          4.4028368558102327E-006
  0.26674999999999999          6.1723609177634494E-006
  0.26760000000000000          7.8719128591257464E-006
  0.26844999999999997          9.4923893552320070E-006
  0.26929999999999998          1.1025572371570789E-005
  0.27015000000000000          1.2464219500787930E-005
  0.27099999999999996          1.3801477136479717E-005
  0.27184999999999998          1.5032012768065411E-005
  0.27270000000000000          1.6151194241850132E-005
  0.27354999999999996          1.7155520871036079E-005
  0.27439999999999998          1.8042514063134472E-005
  0.27524999999999999          1.8810283480298285E-005
  0.27609999999999996          1.9458287417643101E-005
  0.27694999999999997          1.9986869987258156E-005
  0.27779999999999999          2.0397141114500407E-005
  0.27865000000000001          2.0691151944931527E-005
  0.27949999999999997          2.0871830469407188E-005
  0.28034999999999999          2.0942786860729210E-005
  0.28120000000000001          2.0908165871943172E-005
  0.28204999999999997          2.0773151462937101E-005
  0.28289999999999998          2.0543076711040585E-005
  0.28375000000000000          2.0223879589006739E-005
  0.28459999999999996          1.9821956238818497E-005
  0.28544999999999998          1.9343981839736105E-005
  0.28630000000000000          1.8796911328986532E-005
  0.28714999999999996          1.8187745361141881E-005
  0.28799999999999998          1.7523716194778804E-005
  0.28885000000000000          1.6811996817358405E-005
  0.28969999999999996          1.6059674779742983E-005
  0.29054999999999997          1.5273763932424095E-005
  0.29139999999999999          1.4461157997939707E-005
  0.29224999999999995          1.3628497095748301E-005
  0.29309999999999997          1.2782183078409165E-005
  0.29394999999999999          1.1928324788852239E-005
  0.29480000000000001          1.1072715968550800E-005
  0.29564999999999997          1.0220773188480892E-005
  0.29649999999999999          9.3775688651448569E-006
  0.29735000000000000          8.5477325161115595E-006
  0.29819999999999997          7.7354719372324200E-006
  0.29904999999999998          6.9445323092871268E-006
  0.29990000000000000          6.1782545733104597E-006
  0.30074999999999996          5.4394705829654596E-006
  0.30159999999999998          4.7306610317832506E-006
  0.30245000000000000          4.0537881902126593E-006
  0.30329999999999996          3.4105005774911869E-006
  0.30414999999999998          2.8020502668838285E-006
  0.30499999999999999          2.2293609484376797E-006
  0.30584999999999996          1.6929928225808752E-006
  0.30669999999999997          1.1932055028684190E-006
  0.30754999999999999          7.3007188210303602E-007
  0.30840000000000001          3.0327997879344745E-007
  0.30924999999999997         -8.7584393282106899E-008
  0.31009999999999999         -4.4323883356190238E-007
  0.31095000000000000         -7.6465492882753408E-007
  0.31179999999999997         -1.0528022797615371E-006
  0.31264999999999998         -1.3089396846394051E-006
  0.31350000000000000         -1.5343726248963960E-006
  0.31434999999999996         -1.7306452465356190E-006
  0.31519999999999998         -1.8991428931432382E-006
  0.31605000000000000         -2.0414583868176344E-006
  0.31689999999999996         -2.1591966743157938E-006
  0.31774999999999998         -2.2538983433420731E-006
  0.31859999999999999         -2.3271728909310358E-006
  0.31944999999999996         -2.3805822170260207E-006
  0.32029999999999997         -2.4156705927738557E-006
  0.32114999999999999         -2.4339324603787513E-006
  0.32199999999999995         -2.4369080398964458E-006
  0.32284999999999997         -2.4260093725755808E-006
  0.32369999999999999         -2.4027083013415070E-006
  0.32455000000000001         -2.3684196566296121E-006
  0.32539999999999997         -2.3245202442182026E-006
  0.32624999999999998         -2.2722811835629418E-006
  0.32710000000000000         -2.2130262535902076E-006
  0.32794999999999996         -2.1479726004862106E-006
  0.32879999999999998         -2.0782821505605379E-006
  0.32965000000000000         -2.0050539862442469E-006
  0.33049999999999996         -1.9293140028022834E-006
  0.33134999999999998         -1.8520097087442596E-006
  0.33220000000000000         -1.7740361210050347E-006
  0.33304999999999996         -1.6961416630409746E-006
  0.33389999999999997         -1.6190718031917409E-006
  0.33474999999999999         -1.5434733959179983E-006
  0.33559999999999995         -1.4699523583231279E-006
  0.33644999999999997         -1.3990031142540520E-006
  0.33729999999999999         -1.3311106763313775E-006
  0.33815000000000001         -1.2666833971898022E-006
  0.33899999999999997         -1.2060660167223937E-006
  0.33984999999999999         -1.1495509998953363E-006
  0.34070000000000000         -1.0973437426804585E-006
  0.34154999999999996         -1.0495908692713321E-006
  0.34239999999999998         -1.0063823785538825E-006
  0.34325000000000000         -9.6771618632771336E-007