 -0.12000000000000000          0.0000000000000000
 -0.11914999999999999          0.0000000000000000
 -0.11830000000000000          0.0000000000000000
 -0.11745000000000000          0.0000000000000000
 -0.11660000000000000          0.0000000000000000
 -0.11574999999999999          0.0000000000000000
 -0.11490000000000000          0.0000000000000000
 -0.11405000000000000          0.0000000000000000
 -0.11320000000000000          0.0000000000000000
 -0.11234999999999999          0.0000000000000000
 -0.11150000000000000          0.0000000000000000
 -0.11065000000000000          0.0000000000000000
 -0.10979999999999999          0.0000000000000000
 -0.10894999999999999          0.0000000000000000
 -0.10810000000000000          0.0000000000000000
 -0.10725000000000000          0.0000000000000000
 -0.10639999999999999          0.0000000000000000
 -0.10554999999999999          0.0000000000000000
 -0.10470000000000000          1.2043220686679394E-047
 -0.10385000000000000         -7.9178088786764479E-047
 -0.10299999999999999          9.1021873591348379E-046
 -0.10214999999999999          1.1457507132503023E-045
 -0.10130000000000000         -7.0797112442948819E-046
 -0.10045000000000000         -1.6263035953300731E-044
  -9.9599999999999994E-002    -7.4073061789782410E-044
  -9.8750000000000004E-002    -2.2051869999369154E-043
  -9.7900000000000001E-002    -4.7579850144613561E-043
  -9.7049999999999997E-002    -6.8117421967321277E-043
  -9.6199999999999994E-002    -1.9680138477872299E-043
  -9.5349999999999990E-002     2.4535837010480593E-042
  -9.4500000000000001E-002     9.4456360200854183E-042
  -9.3649999999999997E-002     2.1909281283010861E-041
  -9.2799999999999994E-002     3.5146579180760515E-041
  -9.1950000000000004E-002     3.0697445380691319E-041
  -9.1100000000000000E-002    -3.0450560749417058E-041
  -9.0249999999999997E-002    -2.0120315340525497E-040
  -8.9399999999999993E-002    -5.0807778524215867E-040
  -8.8549999999999990E-002    -8.5986035750722185E-040
  -8.7700000000000000E-002    -9.1765512549549420E-040
  -8.6849999999999997E-002    -8.7807822297238584E-042
  -8.5999999999999993E-002     2.7348157106952507E-039
  -8.5150000000000003E-002     7.7692896582386286E-039
  -8.4300000000000000E-002     1.3914347465610035E-038
  -8.3449999999999996E-002     1.6767438255189620E-038
  -8.2600000000000007E-002     7.7823359244709776E-039
  -8.1749999999999989E-002    -2.4048590049604504E-038
  -8.0900000000000000E-002    -8.5578393097886413E-038
  -8.0049999999999996E-002    -1.6684227123357583E-037
  -7.9199999999999993E-002    -2.2512067871083213E-037
  -7.8350000000000003E-002    -1.7514633565123767E-037
  -7.7499999999999999E-002     9.7883382101372457E-038
  -7.6649999999999996E-002     6.8324910047911497E-037
  -7.5800000000000006E-002     1.5381923771777319E-036
  -7.4949999999999989E-002     2.3496232913356041E-036
  -7.4099999999999999E-002     2.4319286373318432E-036
  -7.3249999999999996E-002     7.8129341428703728E-037
  -7.2399999999999992E-002    -3.5699882063901501E-036
  -7.1550000000000002E-002    -1.0810470576287636E-035
  -7.0699999999999999E-002    -1.9305256396872463E-035
  -6.9849999999999995E-002    -2.4640109516622147E-035
  -6.9000000000000006E-002    -1.9496262927892495E-035
  -6.8149999999999988E-002     4.6807095162328177E-036
  -6.7299999999999999E-002     5.3436081035789537E-035
  -6.6449999999999995E-002     1.2255775107708370E-034
  -6.5599999999999992E-002     1.9052808714392186E-034
  -6.4750000000000002E-002     2.1401313126667712E-034
  -6.3899999999999998E-002     1.3204797494511971E-034
  -6.3049999999999995E-002    -1.1525884815109923E-034
  -6.2199999999999998E-002    -5.5072539285893851E-034
  -6.1350000000000002E-002    -1.1113406076605555E-033
  -6.0499999999999998E-002    -1.6024638729661095E-033
  -5.9650000000000002E-002    -1.6828625631124838E-033
  -5.8799999999999998E-002    -9.1593534263191562E-034
  -5.7950000000000002E-002     1.0825777415158236E-033
  -5.7099999999999998E-002     4.3951412256545443E-033
  -5.6249999999999994E-002     8.4941538933445257E-033
  -5.5400000000000005E-002     1.1983001139276933E-032
  -5.4550000000000001E-002     1.2557491447028406E-032
  -5.3699999999999998E-002     7.3864845438902705E-033
  -5.2849999999999994E-002    -5.9375703142231572E-033
  -5.2000000000000005E-002    -2.7885858592362622E-032
  -5.1150000000000001E-002    -5.5202240955970647E-032
  -5.0299999999999997E-002    -7.9469261572765090E-032
  -4.9449999999999994E-002    -8.6982538761692140E-032
  -4.8600000000000004E-002    -6.0991721818904427E-032
  -4.7750000000000001E-002     1.2942377990868121E-032
  -4.6899999999999997E-002     1.3861080293010448E-031
  -4.6049999999999994E-002     2.9945631444730967E-031
  -4.5200000000000004E-002     4.5095342564668785E-031
  -4.4350000000000001E-002     5.2009794322463526E-031
  -4.3499999999999997E-002     4.1747165561075856E-031
  -4.2649999999999993E-002     6.5589835167660334E-032
  -4.1800000000000004E-002    -5.5753286742675122E-031
  -4.0950000000000000E-002    -1.3684676096428039E-030
  -4.0099999999999997E-002    -2.1404952121674626E-030
  -3.9249999999999993E-002    -2.5042722686851332E-030
  -3.8400000000000004E-002    -2.0155069107551985E-030
  -3.7550000000000000E-002    -3.0839661893077797E-031
  -3.6699999999999997E-002     2.6720823946640017E-030
  -3.5850000000000007E-002     6.4079131959602261E-030
  -3.5000000000000003E-002     9.6160871424275081E-030
  -3.4150000000000000E-002     1.0272120800912620E-029
  -3.3299999999999996E-002     6.0073668572288614E-030
  -3.2450000000000007E-002    -5.0099109835551206E-030
  -3.1600000000000003E-002    -2.2734451089373937E-029
  -3.0750000000000000E-002    -4.3696767221505625E-029
  -2.9899999999999996E-002    -5.9790483350391796E-029
  -2.9050000000000006E-002    -5.8210835600497294E-029
  -2.8200000000000003E-002    -2.3492137726998897E-029
  -2.7349999999999999E-002     5.7580633685327504E-029
  -2.6499999999999996E-002     1.8804076105970408E-028
  -2.5650000000000006E-002     3.5080362699511430E-028
  -2.4800000000000003E-002     4.9934522526717602E-028
  -2.3949999999999999E-002     5.5334198093179935E-028
  -2.3099999999999996E-002     4.0487523583397017E-028
  -2.2250000000000006E-002    -5.9231864922101883E-029
  -2.1400000000000002E-002    -9.1559322796625538E-028
  -2.0549999999999999E-002    -2.1446597725327031E-027
  -1.9699999999999995E-002    -3.5630077149524209E-027
  -1.8850000000000006E-002    -4.7670779816444366E-027
  -1.8000000000000002E-002    -5.1174657679517909E-027
  -1.7149999999999999E-002    -3.7983987273380292E-027
  -1.6299999999999995E-002     1.5989785450127067E-029
  -1.5450000000000005E-002     6.8730459654563087E-027
  -1.4600000000000002E-002     1.6647023881513927E-026
  -1.3749999999999998E-002     2.8101902149623589E-026
  -1.2899999999999995E-002     3.8530713231437117E-026
  -1.2050000000000005E-002     4.3642106147966770E-026
  -1.1200000000000002E-002     3.7893094230449427E-026
  -1.0349999999999998E-002     1.5448490594241026E-026
  -9.5000000000000084E-003    -2.8139154494815140E-026
  -8.6500000000000049E-003    -9.3603911012532466E-026
  -7.8000000000000014E-003    -1.7531529930746289E-025
  -6.9499999999999978E-003    -2.5891434149332790E-025
  -6.1000000000000082E-003    -3.2012705797289686E-025
  -5.2500000000000047E-003    -3.2581791642608918E-025
  -4.4000000000000011E-003    -2.3830335699907862E-025
  -3.5499999999999976E-003    -2.3582833525032961E-026
  -2.7000000000000079E-003     3.3660937937828881E-025
  -1.8500000000000044E-003     8.3016852274233005E-025
  -1.0000000000000009E-003     1.4000513883843424E-024
  -1.4999999999999736E-004     1.9338664710208172E-024
   6.9999999999999230E-004     2.2627936550930181E-024
   1.5499999999999958E-003     2.1752504037435222E-024
   2.3999999999999994E-003     1.4496357981736229E-024
   3.2500000000000029E-003    -9.2310804200341735E-026
   4.0999999999999925E-003    -2.5146313072083922E-024
   4.9499999999999961E-003    -5.6880057047581457E-024
   5.7999999999999996E-003    -9.2184501957111279E-024
   6.6499999999999893E-003    -1.2406085903533330E-023
   7.5000000000000067E-003    -1.4259699938927905E-023
   8.3499999999999963E-003    -1.3591556772765382E-023
   9.1999999999999860E-003    -9.2089716827180527E-024
   1.0050000000000003E-002    -2.0339083085617306E-025
   1.0899999999999993E-002     1.3685636538062454E-023
   1.1750000000000010E-002     3.1682979912557523E-023
   1.2600000000000000E-002     5.1647960796148121E-023
   1.3449999999999990E-002     6.9906945583242821E-023
   1.4300000000000007E-002     8.1363569602561677E-023
   1.5149999999999997E-002     7.9989543384324090E-023
   1.5999999999999986E-002     5.9757616773326633E-023
   1.6850000000000004E-002     1.6004911601395925E-023
   1.7699999999999994E-002    -5.2887438284281425E-023
   1.8549999999999983E-002    -1.4373284901128601E-022
   1.9400000000000001E-002    -2.4704945496731090E-022
   2.0249999999999990E-002    -3.4628581888547115E-022
   2.1100000000000008E-002    -4.1823739757350484E-022
   2.1949999999999997E-002    -4.3506934156983292E-022
   2.2799999999999987E-002    -3.6818873793640444E-022
   2.3650000000000004E-002    -1.9391751898204298E-022
   2.4499999999999994E-002     9.9483046206221959E-023
   2.5349999999999984E-002     5.0434231928191735E-022
   2.6200000000000001E-002     9.8702200747522795E-022
   2.7049999999999991E-002     1.4839672469465940E-021
   2.7900000000000008E-002     1.9021894056597080E-021
   2.8749999999999998E-002     2.1258075336986533E-021
   2.9599999999999987E-002     2.0296794171265780E-021
   3.0450000000000005E-002     1.5001400924565629E-021
   3.1299999999999994E-002     4.6148114029516387E-022
   3.2149999999999984E-002    -1.0948064132883417E-021
   3.3000000000000002E-002    -3.0826015154526825E-021
   3.3849999999999991E-002    -5.3013958306407610E-021
   3.4700000000000009E-002    -7.4306778243939807E-021
   3.5549999999999998E-002    -9.0445334266999742E-021
   3.6399999999999988E-002    -9.6508706873720008E-021
   3.7250000000000005E-002    -8.7566462985457174E-021
   3.8099999999999995E-002    -5.9562023680382456E-021
   3.8949999999999985E-002    -1.0346867320069829E-021
   3.9800000000000002E-002     5.9268049539833802E-021
   4.0649999999999992E-002     1.4462340302423305E-020
   4.1500000000000009E-002     2.3669413909706716E-020
   4.2349999999999999E-002     3.2215365965005803E-020
   4.3199999999999988E-002     3.8419483141482197E-020
   4.4050000000000006E-002     4.0420779907459719E-020
   4.4899999999999995E-002     3.6429914558472005E-020
   4.5749999999999985E-002     2.5049161618715859E-020
   4.6600000000000003E-002     5.6281490929038584E-021
   4.7449999999999992E-002    -2.1392258514019730E-020
   4.8299999999999982E-002    -5.4207446816425189E-020
   4.9149999999999999E-002    -8.9512824607749874E-020
   4.9999999999999989E-002    -1.2256531092148209E-019
   5.0850000000000006E-002    -1.4748950828406500E-019
   5.1699999999999996E-002    -1.5784999028990297E-019
   5.2549999999999986E-002    -1.4747505520238468E-019
   5.3400000000000003E-002    -1.1147486420839563E-019
   5.4249999999999993E-002    -4.7351607506125349E-020
   5.5099999999999982E-002     4.3941068474662974E-020
   5.5950000000000000E-002     1.5716118127908840E-019
   5.6799999999999989E-002     2.8234624739848497E-019
   5.7650000000000007E-002     4.0495370631414678E-019
   5.8499999999999996E-002     5.0669934570030793E-019
   5.9349999999999986E-002     5.6714890467278837E-019
   6.0200000000000004E-002     5.6602270488149031E-019
   6.1049999999999993E-002     4.8606406806880677E-019
   6.1899999999999983E-002     3.1620711659987391E-019
   6.2750000000000000E-002     5.4679155001821260E-020
   6.3599999999999990E-002    -2.8840018283427009E-019
   6.4450000000000007E-002    -6.8939003801050394E-019
   6.5299999999999997E-002    -1.1109066688868197E-018
   6.6149999999999987E-002    -1.5033539363625884E-018
   6.7000000000000004E-002    -1.8083920144460735E-018
   6.7849999999999994E-002    -1.9643199477638822E-018
   6.8699999999999983E-002    -1.9130938444531398E-018
   6.9550000000000001E-002    -1.6084444712125898E-018
   7.0399999999999990E-002    -1.0243107492431987E-018
   7.1249999999999980E-002    -1.6261688080619826E-019
   7.2099999999999997E-002     9.4068148976319076E-019
   7.2949999999999987E-002     2.2123517164672338E-018
   7.3800000000000004E-002     3.5423698902233857E-018
   7.4649999999999994E-002     4.7887976015306594E-018
   7.5499999999999984E-002     5.7873182487172035E-018
   7.6350000000000001E-002     6.3652128541941267E-018
   7.7199999999999991E-002     6.3590205228412932E-018
   7.8049999999999981E-002     5.6345932295915928E-018
   7.8899999999999998E-002     4.1077772735827793E-018
   7.9749999999999988E-002     1.7636102144269137E-018
   8.0600000000000005E-002    -1.3282617937566722E-018
   8.1449999999999995E-002    -5.0041858200482117E-018
   8.2299999999999984E-002    -9.0051014242774543E-018
   8.3150000000000002E-002    -1.2984577783152262E-017
   8.3999999999999991E-002    -1.6527025162633336E-017
   8.4849999999999981E-002    -1.9175920846590738E-017
   8.5699999999999998E-002    -2.0470907588433476E-017
   8.6549999999999988E-002    -1.9991652672901156E-017
   8.7400000000000005E-002    -1.7405458994200115E-017
   8.8249999999999995E-002    -1.2514847647419314E-017
   8.9099999999999985E-002    -5.3009178617922902E-018
   8.9950000000000002E-002     4.0419644101263360E-018
   9.0799999999999992E-002     1.5084387095719801E-017
   9.1649999999999981E-002     2.7156775600850649E-017
   9.2499999999999999E-002     3.9363856272312021E-017
   9.3349999999999989E-002     5.0620460133635670E-017
   9.4200000000000006E-002     5.9709116403708770E-017
   9.5049999999999996E-002     6.5358253023069345E-017
   9.5899999999999985E-002     6.6338309087031373E-017
   9.6750000000000003E-002     6.1571377702200439E-017
   9.7599999999999992E-002     5.0248457493671866E-017
   9.8449999999999982E-002     3.1947010212422045E-017
   9.9299999999999999E-002     6.7403263111760301E-018
  0.10014999999999999         -2.4710615109974032E-017
  0.10099999999999998         -6.1092607255699167E-017
  0.10185000000000000         -1.0041271553443639E-016
  0.10269999999999999         -1.4001696421488967E-016
  0.10355000000000000         -1.7666297077307632E-016
  0.10439999999999999         -2.0665223031070205E-016
  0.10524999999999998         -2.2602468823644531E-016
  0.10610000000000000         -2.3081456608164408E-016
  0.10694999999999999         -2.1736140676674377E-016
  0.10779999999999998         -1.8266502326182916E-016
  0.10865000000000000         -1.2476721225342620E-016
  0.10949999999999999         -4.3136617198461508E-017
  0.11035000000000000          6.0972272244964640E-017
  0.11119999999999999          1.8422008332770163E-016
  0.11204999999999998          3.2098075281719254E-016
  0.11290000000000000          4.6327528109912145E-016
  0.11374999999999999          6.0087729691985986E-016
  0.11459999999999998          7.2162091633204993E-016
  0.11545000000000000          8.1193242869268484E-016
  0.11629999999999999          8.5759310422328364E-016
  0.11715000000000000          8.4472375806819793E-016
  0.11799999999999999          7.6096118324264660E-016
  0.11884999999999998          5.9677402776279086E-016
  0.11970000000000000          3.4684349073945538E-016
  0.12054999999999999          1.1412598568046567E-017
  0.12139999999999998         -4.0250998979556818E-016
  0.12225000000000000         -8.8021739440913412E-016
  0.12309999999999999         -1.3987733891379393E-015
  0.12395000000000000         -1.9270072718692582E-015
  0.12479999999999999         -2.4261433905184688E-015
  0.12564999999999998         -2.8511456094187580E-015
  0.12650000000000000         -3.1528181350683810E-015
  0.12734999999999999         -3.2806543563411197E-015
  0.12819999999999998         -3.1863701342838844E-015
  0.12905000000000000         -2.8279892023044368E-015
  0.12989999999999999         -2.1742907411788642E-015
  0.13074999999999998         -1.2093600461628944E-015
  0.13159999999999999          6.3065686692186115E-017
  0.13245000000000001          1.6158099390245551E-015
  0.13329999999999997          3.3954080555462673E-015
  0.13414999999999999          5.3205750350799048E-015
  0.13500000000000001          7.2823528521621549E-015
  0.13584999999999997          9.1462456069383581E-015
  0.13669999999999999          1.0756567920445324E-014
  0.13755000000000001          1.1943137251405172E-014
  0.13839999999999997          1.2530276178742671E-014
  0.13924999999999998          1.2347968762259716E-014
  0.14010000000000000          1.1244802928211339E-014
  0.14094999999999996          9.1021736447717000E-015
  0.14179999999999998          5.8490198536102982E-015
  0.14265000000000000          1.4762218585261868E-015
  0.14350000000000002         -3.9503840289322943E-015
  0.14434999999999998         -1.0279473386802497E-014
  0.14520000000000000         -1.7267362108783168E-014
  0.14605000000000001         -2.4575935549041420E-014
  0.14689999999999998         -3.1776404664708356E-014
  0.14774999999999999         -3.8359757831849653E-014
  0.14860000000000001         -4.3754455045200767E-014
  0.14944999999999997         -4.7351613999693368E-014
  0.15029999999999999         -4.8537425902992598E-014
  0.15115000000000001         -4.6732107392184710E-014
  0.15199999999999997         -4.1434110765054394E-014
  0.15284999999999999         -3.2267737655376409E-014
  0.15370000000000000         -1.9031836679610820E-014
  0.15454999999999997         -1.7466663136378411E-015
  0.15539999999999998          1.9304326248874371E-014
  0.15625000000000000          4.3541323453646421E-014
  0.15709999999999996          7.0067203661674480E-014
  0.15794999999999998          9.7662402821673853E-014
  0.15880000000000000          1.2479868015075944E-013
  0.15965000000000001          1.4967446502400927E-013
  0.16049999999999998          1.7027347697378754E-013
  0.16134999999999999          1.8444727241105184E-013
  0.16220000000000001          1.9002099837021565E-013
  0.16304999999999997          1.8492034882062269E-013
  0.16389999999999999          1.6731564431276976E-013
  0.16475000000000001          1.3577790063570522E-013
  0.16559999999999997          8.9439536000279714E-014
  0.16644999999999999          2.8151345799988151E-014
  0.16730000000000000         -4.7374208982239192E-014
  0.16814999999999997         -1.3544391320901992E-013
  0.16899999999999998         -2.3330011607762662E-013
  0.16985000000000000         -3.3708336190510062E-013
  0.17069999999999996         -4.4185137779716861E-013
  0.17154999999999998         -5.4166316257627363E-013
  0.17240000000000000         -6.2973460475441758E-013
  0.17325000000000002         -6.9866927066157883E-013
  0.17409999999999998         -7.4076389333250431E-013
  0.17494999999999999         -7.4838518870308145E-013
  0.17580000000000001         -7.1440879829135898E-013
  0.17664999999999997         -6.3270675155216078E-013
  0.17749999999999999         -4.9866538360466452E-013
  0.17835000000000001         -3.0971126002444479E-013
  0.17919999999999997         -6.5817136872592775E-014
  0.18004999999999999          2.3004121090019457E-013
  0.18090000000000001          5.7151034237914701E-013
  0.18174999999999997          9.4859916027397815E-013
  0.18259999999999998          1.3475669082281694E-012
  0.18345000000000000          1.7509875669481403E-012
  0.18429999999999996          2.1380173209301085E-012
  0.18514999999999998          2.4848828957061703E-012
  0.18600000000000000          2.7656008908816952E-012
  0.18684999999999996          2.9529304920635876E-012
  0.18769999999999998          3.0195454642962197E-012
  0.18855000000000000          2.9394018709487433E-012
  0.18940000000000001          2.6892645664008149E-012
  0.19024999999999997          2.2503409629985658E-012
  0.19109999999999999          1.6099590939619996E-012
  0.19195000000000001          7.6321085199553811E-013
  0.19279999999999997         -2.8552099797309832E-013
  0.19364999999999999         -1.5212465140356168E-012
  0.19450000000000001         -2.9173584332682893E-012
  0.19534999999999997         -4.4350232211922437E-012
  0.19619999999999999         -6.0230627044970251E-012
  0.19705000000000000         -7.6184053516138122E-012
  0.19789999999999996         -9.1471738701357708E-012
  0.19874999999999998         -1.0526451853661408E-011
  0.19960000000000000         -1.1666751929579844E-011
  0.20044999999999996         -1.2475168917283115E-011
  0.20129999999999998         -1.2859193798639961E-011
  0.20215000000000000         -1.2731089496102396E-011
  0.20300000000000001         -1.2012742253535181E-011
  0.20384999999999998         -1.0640820359287380E-011
  0.20469999999999999         -8.5720878572244315E-012
  0.20555000000000001         -5.7886409203098132E-012
  0.20639999999999997         -2.3028574383733209E-012
  0.20724999999999999          1.8382052338702541E-012
  0.20810000000000001          6.5492084609356351E-012
  0.20894999999999997          1.1703990560177162E-011
  0.20979999999999999          1.7134327509757820E-011
  0.21065000000000000          2.2630223058979583E-011
  0.21149999999999997          2.7941926965683996E-011
  0.21234999999999998          3.2783815622354421E-011
  0.21320000000000000          3.6840260646684381E-011
  0.21404999999999996          3.9773489650235131E-011
  0.21489999999999998          4.1233448885749655E-011
  0.21575000000000000          4.0869524410341193E-011
  0.21659999999999996          3.8344003483417440E-011
  0.21744999999999998          3.3346977116873893E-011
  0.21829999999999999          2.5612422713400076E-011
  0.21915000000000001          1.4935090725034187E-011
  0.21999999999999997          1.1877626897786953E-012
  0.22084999999999999         -1.5661543928318848E-011
  0.22170000000000001         -3.5532868586211036E-011
  0.22254999999999997         -5.8218581412196955E-011
  0.22339999999999999         -8.3368998267695546E-011
  0.22425000000000000         -1.1047971149494265E-010
  0.22509999999999997         -1.3888090535919971E-010
  0.22594999999999998         -1.6772878944494279E-010
  0.22680000000000000         -1.9599914998538163E-010
  0.22764999999999996         -2.2248302992869752E-010
  0.22849999999999998         -2.4578397254147165E-010
  0.22935000000000000         -2.6431664085624743E-010
  0.23019999999999996         -2.7630571203493727E-010
  0.23104999999999998         -2.7978459920359646E-010
  0.23190000000000000         -2.7259214854384960E-010
  0.23275000000000001         -2.5236640966912834E-010
  0.23359999999999997         -2.1653382224528953E-010
  0.23444999999999999         -1.6229183246279617E-010
  0.23530000000000001         -8.6583288086126806E-011
  0.23614999999999997          1.3939956193168832E-011
  0.23699999999999999          1.4296599337258627E-010
  0.23785000000000001          3.0458746779436563E-010
  0.23869999999999997          5.0338395064479421E-010
  0.23954999999999999          7.4452479819913641E-010
  0.24040000000000000          1.0338950438031144E-009
  0.24124999999999996          1.3782464444473975E-009
  0.24209999999999998          1.7853774607423373E-009
  0.24295000000000000          2.2643441016547472E-009
  0.24379999999999996          2.8257053962577670E-009
  0.24464999999999998          3.4818052351253563E-009
  0.24550000000000000          4.2470939872036467E-009
  0.24634999999999996          5.1384924862620232E-009
  0.24719999999999998          6.1757996164595153E-009
  0.24804999999999999          7.3821490768815252E-009
  0.24890000000000001          8.7845177812120440E-009
  0.24974999999999997          1.0414286041203086E-008
  0.25059999999999999          1.2307860266386300E-008
  0.25145000000000001          1.4507352648786061E-008
  0.25229999999999997          1.7061328015741854E-008
  0.25314999999999999          2.0025622514851784E-008
  0.25400000000000000          2.3464232595733524E-008
  0.25484999999999997          2.7450276858133267E-008
  0.25569999999999998          3.2067050577287114E-008
  0.25655000000000000          3.7409157677744798E-008
  0.25739999999999996          4.3583727449958040E-008
  0.25824999999999998          5.0711721056614741E-008
  0.25910000000000000          5.8929345007882864E-008
  0.25994999999999996          6.8389539204180893E-008
  0.26079999999999998          7.9263559795318611E-008
  0.26164999999999999          9.1742656120925334E-008
  0.26249999999999996          1.0603982903514059E-007
  0.26334999999999997          1.2239166328523413E-007
  0.26419999999999999          1.4106024887448234E-007
  0.26505000000000001          1.6233506844595778E-007
  0.26589999999999997          1.8653500615984154E-007
  0.26674999999999999          2.1401034565651136E-007
  0.26760000000000000          2.4514467439411172E-007
  0.26844999999999997          2.8035682446908152E-007
  0.26929999999999998          3.2010269072323599E-007
  0.27015000000000000          3.6487674871452018E-007
  0.27099999999999996          4.1521367531336642E-007
  0.27184999999999998          4.7168935771414672E-007
  0.27270000000000000          5.3492180143235828E-007
  0.27354999999999996          6.0557147682652781E-007
  0.27439999999999998          6.8434131971512124E-007
  0.27524999999999999          7.7197607279829933E-007
  0.27609999999999996          8.6926088481252829E-007
  0.27694999999999997          9.7701914080346973E-007
  0.27779999999999999          1.0961095333407086E-006
  0.27865000000000001          1.2274219773514819E-006
  0.27949999999999997          1.3718723879401816E-006
  0.28034999999999999          1.5303964236645090E-006
  0.28120000000000001          1.7039420714772884E-006
  0.28204999999999997          1.8934597550974573E-006
  0.28289999999999998          2.0998925439500874E-006
  0.28375000000000000          2.3241636334511257E-006
  0.28459999999999996          2.5671627629309091E-006
  0.28544999999999998          2.8297294400665728E-006
  0.28630000000000000          3.1126368671329622E-006
  0.28714999999999996          3.4165720550845470E-006
  0.28799999999999998          3.7421150510062119E-006
  0.28885000000000000          4.0897169581940085E-006
  0.28969999999999996          4.4596739831850869E-006
  0.29054999999999997          4.8521022634334597E-006
  0.29139999999999999          5.2669108678175292E-006
  0.29224999999999995          5.7037730082435083E-006
  0.29309999999999997          6.1620973685198034E-006
  0.29394999999999999          6.6409969440466228E-006
  0.29480000000000001          7.1392611936604703E-006
  0.29564999999999997          7.6553239522511875E-006
  0.29649999999999999          8.1872330522485688E-006
  0.29735000000000000          8.7326227971427984E-006
  0.29819999999999997          9.2886861780918363E-006
  0.29904999999999998          9.8521496496299376E-006
  0.29990000000000000          1.0419250077012581E-005
  0.30074999999999996          1.0985718359266458E-005
  0.30159999999999998          1.1546763398946987E-005
  0.30245000000000000          1.2097064100216269E-005
  0.30329999999999996          1.2630760270291542E-005
  0.30414999999999998          1.3141456877442993E-005
  0.30499999999999999          1.3622231790783844E-005
  0.30584999999999996          1.4065652452224508E-005
  0.30669999999999997          1.4463796008866098E-005
  0.30754999999999999          1.4808288169569636E-005
  0.30840000000000001          1.5090342399326590E-005
  0.30924999999999997          1.5300805301675431E-005
  0.31009999999999999          1.5430224135963146E-005
  0.31095000000000000          1.5468917541368952E-005
  0.31179999999999997          1.5407056251014893E-005
  0.31264999999999998          1.5234750981044918E-005
  0.31350000000000000          1.4942161705895095E-005
  0.31434999999999996          1.4519599071499584E-005
  0.31519999999999998          1.3957650469531020E-005
  0.31605000000000000          1.3247303219147628E-005
  0.31689999999999996          1.2380082632911871E-005
  0.31774999999999998          1.1348193686812398E-005
  0.31859999999999999          1.0144664307237254E-005
  0.31944999999999996          8.7634940409386968E-006
  0.32029999999999997          7.1998053247666888E-006
  0.32114999999999999          5.4499893592865677E-006
  0.32199999999999995          3.5118591122948548E-006
  0.32284999999999997          1.3847872468294354E-006
  0.32369999999999999         -9.3015644223705802E-007
  0.32455000000000001         -3.4300824415511268E-006
  0.32539999999999997         -6.1101665431825981E-006
  0.32624999999999998         -8.9635474547490213E-006
  0.32710000000000000         -1.1981241331666828E-005
  0.32794999999999996         -1.5152074932104604E-005
  0.32879999999999998         -1.8462641101500020E-005
  0.32965000000000000         -2.1897277913396496E-005
  0.33049999999999996         -2.5438074811668195E-005
  0.33134999999999998         -2.9064900494260293E-005
  0.33220000000000000         -3.2755458771266643E-005
  0.33304999999999996         -3.6485372409583891E-005
  0.33389999999999997         -4.0228309233796700E-005
  0.33474999999999999         -4.3956120513092504E-005
  0.33559999999999995         -4.7639033030658499E-005
  0.33644999999999997         -5.1245839093011241E-005
  0.33729999999999999         -5.4744157510926953E-005
  0.33815000000000001         -5.8100675577446933E-005
  0.33899999999999997         -6.1281448493006661E-005
  0.33984999999999999         -6.4252214854548535E-005
  0.34070000000000000         -6.6978744906645042E-005
  0.34154999999999996         -6.9427166369194935E-005
  0.34239999999999998         -7.1564329694613090E-005
  0.34325000000000000         -7.3358201245647762E-005
  0.34409999999999996         -7.4778223259860097E-005