 -0.12000000000000000          0.0000000000000000
 -0.11914999999999999          0.0000000000000000
 -0.11830000000000000          0.0000000000000000
 -0.11745000000000000          0.0000000000000000
 -0.11660000000000000          0.0000000000000000
 -0.11574999999999999          0.0000000000000000
 -0.11490000000000000          0.0000000000000000
 -0.11405000000000000          0.0000000000000000
 -0.11320000000000000          0.0000000000000000
 -0.11234999999999999          0.0000000000000000
 -0.11150000000000000          0.0000000000000000
 -0.11065000000000000          0.0000000000000000
 -0.10979999999999999          0.0000000000000000
 -0.10894999999999999          0.0000000000000000
 -0.10810000000000000          0.0000000000000000
 -0.10725000000000000          0.0000000000000000
 -0.10639999999999999          0.0000000000000000
 -0.10554999999999999          0.0000000000000000
 -0.10470000000000000          0.0000000000000000
 -0.10385000000000000          0.0000000000000000
 -0.10299999999999999          0.0000000000000000
 -0.10214999999999999          0.0000000000000000
 -0.10130000000000000          0.0000000000000000
 -0.10045000000000000          0.0000000000000000
  -9.9599999999999994E-002     0.0000000000000000
  -9.8750000000000004E-002     0.0000000000000000
  -9.7900000000000001E-002     0.0000000000000000
  -9.7049999999999997E-002     0.0000000000000000
  -9.6199999999999994E-002     0.0000000000000000
  -9.5349999999999990E-002    -8.5097636813777637E-061
  -9.4500000000000001E-002    -1.9710495408638073E-060
  -9.3649999999999997E-002    -3.3985752784014600E-060
  -9.2799999999999994E-002     1.7878079320805314E-060
  -9.1950000000000004E-002     2.8053338397129245E-046
  -9.1100000000000000E-002     1.4482095358959936E-045
  -9.0249999999999997E-002     9.4724075946160053E-047
  -8.9399999999999993E-002    -2.5722609892701983E-045
  -8.8549999999999990E-002    -1.0639337460510712E-044
  -8.7700000000000000E-002    -2.2760764088287346E-044
  -8.6849999999999997E-002    -3.0785656857014596E-044
  -8.5999999999999993E-002    -9.4660526371302691E-045
  -8.5150000000000003E-002     8.9440470642120530E-044
  -8.4300000000000000E-002     3.0227036754591104E-043
  -8.3449999999999996E-002     5.8776173861561905E-043
  -8.2600000000000007E-002     7.1226939993528472E-043
  -8.1749999999999989E-002     1.4067931093767568E-043
  -8.0900000000000000E-002    -1.8646044223224254E-042
  -8.0049999999999996E-002    -5.7137369289182871E-042
  -7.9199999999999993E-002    -1.0354178968337301E-041
  -7.8350000000000003E-002    -1.1828266714552855E-041
  -7.7499999999999999E-002    -2.6063488841789449E-042
  -7.6649999999999996E-002     2.6272267221117137E-041
  -7.5800000000000006E-002     7.8042797672303728E-041
  -7.4949999999999989E-002     1.3764035563161364E-040
  -7.4099999999999999E-002     1.5809924911055267E-040
  -7.3249999999999996E-002     5.7576991494213423E-041
  -7.2399999999999992E-002    -2.5512552503460252E-040
  -7.1550000000000002E-002    -8.1044046812094189E-040
  -7.0699999999999999E-002    -1.4654458286953158E-039
  -6.9849999999999995E-002    -1.7902566995292480E-039
  -6.9000000000000006E-002    -1.0477967346847272E-039
  -6.8149999999999988E-002     1.5990240599938039E-039
  -6.7299999999999999E-002     6.5389172071666534E-039
  -6.6449999999999995E-002     1.2840703726370392E-038
  -6.5599999999999992E-002     1.7344381213309855E-038
  -6.4750000000000002E-002     1.4354105517762762E-038
  -6.3899999999999998E-002    -3.1515112773420231E-039
  -6.3049999999999995E-002    -3.9955630028443333E-038
  -6.2199999999999998E-002    -9.2600165539162532E-038
  -6.1350000000000002E-002    -1.4245795128822178E-037
  -6.0499999999999998E-002    -1.5163264337542191E-037
  -5.9650000000000002E-002    -6.7471819786153102E-038
  -5.8799999999999998E-002     1.5823266682515738E-037
  -5.7950000000000002E-002     5.3265555080122358E-037
  -5.7099999999999998E-002     9.7373379263304957E-037
  -5.6249999999999994E-002     1.2693038149342449E-036
  -5.5400000000000005E-002     1.0767285494263866E-036
  -5.4550000000000001E-002     3.5310559442464198E-039
  -5.3699999999999998E-002    -2.2008623937936990E-036
  -5.2849999999999994E-002    -5.3507367658026122E-036
  -5.2000000000000005E-002    -8.5052197520574128E-036
  -5.1150000000000001E-002    -9.7911004503540341E-036
  -5.0299999999999997E-002    -6.6047445767765933E-036
  -4.9449999999999994E-002     3.5715745117788553E-036
  -4.8600000000000004E-002     2.1642878651895130E-035
  -4.7750000000000001E-002     4.4885924946286528E-035
  -4.6899999999999997E-002     6.5138354808434584E-035
  -4.6049999999999994E-002     6.8381011017917039E-035
  -4.5200000000000004E-002     3.7166115374009915E-035
  -4.4350000000000001E-002    -4.2959702378814005E-035
  -4.3499999999999997E-002    -1.7306614827643161E-034
  -4.2649999999999993E-002    -3.2864890436558111E-034
  -4.1800000000000004E-002    -4.5054310169676958E-034
  -4.0950000000000000E-002    -4.4623851310523181E-034
  -4.0099999999999997E-002    -2.0942980745856270E-034
  -3.9249999999999993E-002     3.3740718984249159E-034
  -3.8400000000000004E-002     1.1804508459458434E-033
  -3.7550000000000000E-002     2.1473630083060939E-033
  -3.6699999999999997E-002     2.8650276232422780E-033
  -3.5850000000000007E-002     2.7820475316094821E-033
  -3.5000000000000003E-002     1.2945908302082164E-033
  -3.4150000000000000E-002    -2.0064882422751673E-033
  -3.3299999999999996E-002    -6.9935013532432670E-033
  -3.2450000000000007E-002    -1.2654607432137349E-032
  -3.1600000000000003E-002    -1.6898324027769966E-032
  -3.0750000000000000E-002    -1.6709047544291345E-032
  -2.9899999999999996E-002    -8.8337920834355579E-033
  -2.9050000000000006E-002     8.9327877934557732E-033
  -2.8200000000000003E-002     3.6018006808379631E-032
  -2.7349999999999999E-002     6.7348983443989008E-032
  -2.6499999999999996E-002     9.2395107385369021E-032
  -2.5650000000000006E-002     9.5907023667663495E-032
  -2.4800000000000003E-002     6.1174303672295546E-032
  -2.3949999999999999E-002    -2.3905649951895729E-032
  -2.3099999999999996E-002    -1.5864773865801183E-031
  -2.2250000000000006E-002    -3.2131888681724008E-031
  -2.1400000000000002E-002    -4.6415602164997368E-031
  -2.0549999999999999E-002    -5.1579842139020482E-031
  -1.9699999999999995E-002    -3.9484791008392227E-031
  -1.8850000000000006E-002    -3.6089716185425700E-032
  -1.8000000000000002E-002     5.7321154709882508E-031
  -1.7149999999999999E-002     1.3551052346914827E-030
  -1.6299999999999995E-002     2.1147056699623716E-030
  -1.5450000000000005E-002     2.5434481787339108E-030
  -1.4600000000000002E-002     2.2684370815229046E-030
  -1.3749999999999998E-002     9.5655751733618096E-031
  -1.2899999999999995E-002    -1.5338378233991261E-030
  -1.2050000000000005E-002    -4.9832047196008332E-030
  -1.1200000000000002E-002    -8.6766792284305019E-030
  -1.0349999999999998E-002    -1.1377023804268337E-029
  -9.5000000000000084E-003    -1.1477518121227421E-029
  -8.6500000000000049E-003    -7.3828677306181523E-030
  -7.8000000000000014E-003     1.8904152905955879E-030
  -6.9499999999999978E-003     1.5988275939987290E-029
  -6.1000000000000082E-003     3.2561872491215833E-029
  -5.2500000000000047E-003     4.6958458216348413E-029
  -4.4000000000000011E-003     5.2573759956303071E-029
  -3.5499999999999976E-003     4.2119837608451787E-029
  -2.7000000000000079E-003     9.8797173915708920E-030
  -1.8500000000000044E-003    -4.5289883709631255E-029
  -1.0000000000000009E-003    -1.1684564933863492E-028
  -1.4999999999999736E-004    -1.8837266601283427E-028
   6.9999999999999230E-004    -2.3362873411069118E-028
   1.5499999999999958E-003    -2.2008370623451484E-028
   2.3999999999999994E-003    -1.1673279833848323E-028
   3.2500000000000029E-003     9.4054479824186782E-029
   4.0999999999999925E-003     4.0238696052228336E-028
   4.9499999999999961E-003     7.5788737678565056E-028
   5.7999999999999996E-003     1.0629461447152145E-027
   6.6499999999999893E-003     1.1779878927171415E-027
   7.5000000000000067E-003     9.4384201469257088E-028
   8.3499999999999963E-003     2.2359686395482323E-028
   9.1999999999999860E-003    -1.0386156385645340E-027
   1.0050000000000003E-002    -2.7512325935975972E-027
   1.0899999999999993E-002    -4.6180852122448082E-027
   1.1750000000000010E-002    -6.1135369133117773E-027
   1.2600000000000000E-002    -6.5155979244291749E-027
   1.3449999999999990E-002    -5.0188398258852153E-027
   1.4300000000000007E-002    -9.3659632524755025E-028
   1.5149999999999997E-002     6.0196202609349949E-027
   1.5999999999999986E-002     1.5424650336202862E-026
   1.6850000000000004E-002     2.5861398441378664E-026
   1.7699999999999994E-002     3.4780359047590688E-026
   1.8549999999999983E-002     3.8610348900101154E-026
   1.9400000000000001E-002     3.3221291914562617E-026
   2.0249999999999990E-002     1.4793246122409426E-026
   2.1100000000000008E-002    -1.8938387618005891E-026
   2.1949999999999997E-002    -6.7208857399654543E-026
   2.2799999999999987E-002    -1.2480305256754292E-025
   2.3650000000000004E-002    -1.8109397696714974E-025
   2.4499999999999994E-002    -2.2002473254602128E-025
   2.5349999999999984E-002    -2.2150737254782533E-025
   2.6200000000000001E-002    -1.6457588331046344E-025
   2.7049999999999991E-002    -3.2345576842191057E-026
   2.7900000000000008E-002     1.8159548524490372E-025
   2.8749999999999998E-002     4.6626787008044386E-025
   2.9599999999999987E-002     7.8730690888422895E-025
   3.0450000000000005E-002     1.0837878734927870E-024
   3.1299999999999994E-002     1.2699504666754867E-024
   3.2149999999999984E-002     1.2436830540183751E-024
   3.3000000000000002E-002     9.0287573293035833E-025
   3.3849999999999991E-002     1.6942129380893523E-025
   3.4700000000000009E-002    -9.8120207594946389E-025
   3.5549999999999998E-002    -2.4890011032106058E-024
   3.6399999999999988E-002    -4.1835539637122946E-024
   3.7250000000000005E-002    -5.7710917076317295E-024
   3.8099999999999995E-002    -6.8431035852632522E-024
   3.8949999999999985E-002    -6.9139041929322608E-024
   3.9800000000000002E-002    -5.4915181507406167E-024
   4.0649999999999992E-002    -2.1809324909847904E-024
   4.1500000000000009E-002     3.1884040741229702E-024
   4.2349999999999999E-002     1.0427356563839721E-023
   4.3199999999999988E-002     1.8868963289958939E-023
   4.4050000000000006E-002     2.7298700211140295E-023
   4.4899999999999995E-002     3.3967223867915991E-023
   4.5749999999999985E-002     3.6716621562317181E-023
   4.6600000000000003E-002     3.3240932648508723E-023
   4.7449999999999992E-002     2.1483404839978079E-023
   4.8299999999999982E-002     1.4718533753174161E-025
   4.9149999999999999E-002    -3.0734660933972161E-023
   4.9999999999999989E-002    -6.9256223807427234E-023
   5.0850000000000006E-002    -1.1123694822248645E-022
   5.1699999999999996E-002    -1.5009180081332424E-022
   5.2549999999999986E-002    -1.7710266187428191E-022
   5.3400000000000003E-002    -1.8219427249642135E-022
   5.4249999999999993E-002    -1.5526396695467785E-022
   5.5099999999999982E-002    -8.8031622354541067E-023
   5.5950000000000000E-002     2.3730024519062865E-023
   5.6799999999999989E-002     1.7784381182100955E-022
   5.7650000000000007E-002     3.6362994366283145E-022
   5.8499999999999996E-002     5.6052647910174864E-022
   5.9349999999999986E-002     7.3793483423208897E-022
   6.0200000000000004E-002     8.5676433227693348E-022
   6.1049999999999993E-002     8.7302537223431450E-022
   6.1899999999999983E-002     7.4359156304354924E-022
   6.2750000000000000E-002     4.3392651488955696E-022
   6.3599999999999990E-002    -7.2834601962917989E-023
   6.4450000000000007E-002    -7.6649723224110137E-022
   6.5299999999999997E-002    -1.6015740652124763E-021
   6.6149999999999987E-002    -2.4919805785883015E-021
   6.7000000000000004E-002    -3.3105527362218858E-021
   6.7849999999999994E-002    -3.8951419157899524E-021
   6.8699999999999983E-002    -4.0625602794926419E-021
   6.9550000000000001E-002    -3.6308111736015278E-021
   7.0399999999999990E-002    -2.4488503536781156E-021
   7.1249999999999980E-002    -4.3168158084890256E-022
   7.2099999999999997E-002     2.4030051585477543E-021
   7.2949999999999987E-002     5.9019104728042060E-021
   7.3800000000000004E-002     9.7533287488759996E-021
   7.4649999999999994E-002     1.3481379987547064E-020
   7.5499999999999984E-002     1.6463766118574890E-020
   7.6350000000000001E-002     1.7977993063212428E-020
   7.7199999999999991E-002     1.7278223285971638E-020
   7.8049999999999981E-002     1.3700912846008182E-020
   7.8899999999999998E-002     6.7924714703313297E-021
   7.9749999999999988E-002    -3.5532942943015753E-021
   8.0600000000000005E-002    -1.6965406320290772E-020
   8.1449999999999995E-002    -3.2495324576795210E-020
   8.2299999999999984E-002    -4.8569956098837457E-020
   8.3150000000000002E-002    -6.3021431834913063E-020
   8.3999999999999991E-002    -7.3212896321546682E-020
   8.4849999999999981E-002    -7.6271243296923179E-020
   8.5699999999999998E-002    -6.9425544210801010E-020
   8.6549999999999988E-002    -5.0434375050500301E-020
   8.7400000000000005E-002    -1.8067453193165148E-020
   8.8249999999999995E-002     2.7410449641630973E-020
   8.9099999999999985E-002     8.3820844300541576E-020
   8.9950000000000002E-002     1.4679557444404126E-019
   9.0799999999999992E-002     2.0972298622703389E-019
   9.1649999999999981E-002     2.6398701348901818E-019
   9.2499999999999999E-002     2.9954923533363538E-019
   9.3349999999999989E-002     3.0589082331508893E-019
   9.4200000000000006E-002     2.7328682466551292E-019
   9.5049999999999996E-002     1.9433311607614414E-019
   9.5899999999999985E-002     6.5590907921603694E-020
   9.6750000000000003E-002    -1.1083733303976663E-019
   9.7599999999999992E-002    -3.2602670888496648E-019
   9.8449999999999982E-002    -5.6348906886001711E-019
   9.9299999999999999E-002    -7.9921078025460606E-019
  0.10014999999999999         -1.0026668217714730E-018
  0.10099999999999998         -1.1389328539182082E-018
  0.10185000000000000         -1.1719058148531028E-018
  0.10269999999999999         -1.0685074414120343E-018
  0.10355000000000000         -8.0358898388813932E-019
  0.10439999999999999         -3.6510077770626689E-019
  0.10524999999999998          2.4104599445575685E-019
  0.10610000000000000          9.8709455306902766E-019
  0.10694999999999999          1.8212409275257493E-018
  0.10779999999999998          2.6677753530054756E-018
  0.10865000000000000          3.4300982884268307E-018
  0.10949999999999999          3.9969174955275152E-018
  0.11035000000000000          4.2516207937486165E-018
  0.11119999999999999          4.0844528918522319E-018
  0.11204999999999998          3.4067096574277336E-018
  0.11290000000000000          2.1657750025846480E-018
  0.11374999999999999          3.5948275795205750E-019
  0.11459999999999998         -1.9519586267727288E-018
  0.11545000000000000         -4.6383096569752776E-018
  0.11629999999999999         -7.4976466910341642E-018
  0.11715000000000000         -1.0262125833726821E-017
  0.11799999999999999         -1.2612045522028807E-017
  0.11884999999999998         -1.4198373601339595E-017
  0.11970000000000000         -1.4673035446635272E-017
  0.12054999999999999         -1.3725313821353131E-017
  0.12139999999999998         -1.1121799059635452E-017
  0.12225000000000000         -6.7464807869926022E-018
  0.12309999999999999         -6.3699483223390250E-019
  0.12395000000000000          6.9873000870896891E-018
  0.12479999999999999          1.5709628679562689E-017
  0.12564999999999998          2.4916259997361881E-017
  0.12650000000000000          3.3815906584185790E-017
  0.12734999999999999          4.1479591102751844E-017
  0.12819999999999998          4.6900779731290122E-017
  0.12905000000000000          4.9073797266281747E-017
  0.12989999999999999          4.7086527113025535E-017
  0.13074999999999998          4.0221564416486200E-017
  0.13159999999999999          2.8058394553765520E-017
  0.13245000000000001          1.0567977906755886E-017
  0.13329999999999997         -1.1809553816429057E-017
  0.13414999999999999         -3.8113330775512463E-017
  0.13500000000000001         -6.6844806185689584E-017
  0.13584999999999997         -9.5992530698484090E-017
  0.13669999999999999         -1.2310346534202278E-016
  0.13755000000000001         -1.4540288502956200E-016
  0.13839999999999997         -1.5996156748538106E-016
  0.13924999999999998         -1.6390549281804232E-016
  0.14010000000000000         -1.5465898235216014E-016
  0.14094999999999996         -1.3020898821774929E-016
  0.14179999999999998         -8.9374397574654205E-017
  0.14265000000000000         -3.2061167467990252E-017
  0.14350000000000002          4.0517828477920228E-017
  0.14434999999999998          1.2568093794697819E-016
  0.14520000000000000          2.1919618851809421E-016
  0.14605000000000001          3.1530114689597764E-016
  0.14689999999999998          4.0684177768548225E-016
  0.14774999999999999          4.8554308485478908E-016
  0.14860000000000001          5.4241722743643739E-016
  0.14944999999999997          5.6830590220383579E-016
  0.15029999999999999          5.5454418646336101E-016
  0.15115000000000001          4.9372043462699401E-016
  0.15199999999999997          3.8049568502594732E-016
  0.15284999999999999          2.1243333150445941E-016
  0.15370000000000000         -9.2199720723396991E-018
  0.15454999999999997         -2.7887078789748634E-016
  0.15539999999999998         -5.8610569547669016E-016
  0.15625000000000000         -9.1548217249521402E-016
  0.15709999999999996         -1.2466520191262035E-015
  0.15794999999999998         -1.5548754434684863E-015
  0.15880000000000000         -1.8119641726094990E-015
  0.15965000000000001         -1.9876703636415458E-015
  0.16049999999999998         -2.0515039965488621E-015
  0.16134999999999999         -1.9749309314524603E-015
  0.16220000000000001         -1.7338618486362419E-015
  0.16304999999999997         -1.3113088279454712E-015
  0.16389999999999999         -7.0004544204777734E-016
  0.16475000000000001          9.4917574645325366E-017
  0.16559999999999997          1.0542562656188436E-015
  0.16644999999999999          2.1428776020413198E-015
  0.16730000000000000          3.3093026900308218E-015
  0.16814999999999997          4.4860853331365973E-015
  0.16899999999999998          5.5914280339168078E-015
  0.16985000000000000          6.5320967898222022E-015
  0.17069999999999996          7.2076750483992045E-015
  0.17154999999999998          7.5161019717246460E-015
  0.17240000000000000          7.3603577969378265E-015
  0.17325000000000002          6.6560442871774470E-015
  0.17409999999999998          5.3395244662207161E-015
  0.17494999999999999          3.3761806103604229E-015
  0.17580000000000001          7.6827121897728654E-016
  0.17664999999999997         -2.4381911204117030E-015
  0.17749999999999999         -6.1481600894573206E-015
  0.17835000000000001         -1.0214489889578673E-014
  0.17919999999999997         -1.4437669944084869E-014
  0.18004999999999999         -1.8568873252905002E-014
  0.18090000000000001         -2.2316707582838053E-014
  0.18174999999999997         -2.5357893412754918E-014
  0.18259999999999998         -2.7351915720413846E-014
  0.18345000000000000         -2.7959416814692193E-014
  0.18429999999999996         -2.6863875379300373E-014
  0.18514999999999998         -2.3795825147220779E-014
  0.18600000000000000         -1.8558545540166836E-014
  0.18684999999999996         -1.1053957795095074E-014
  0.18769999999999998         -1.3071708633494611E-015
  0.18855000000000000          1.0512060263796995E-014
  0.18940000000000001          2.4072777767837939E-014
  0.19024999999999997          3.8873039074207348E-014
  0.19109999999999999          5.4238676351668066E-014
  0.19195000000000001          6.9332151765343388E-014
  0.19279999999999997          8.3172822468477857E-014
  0.19364999999999999          9.4669287273222301E-014
  0.19450000000000001          1.0266409444993487E-013
  0.19534999999999997          1.0599035862315977E-013
  0.19619999999999999          1.0353893754179712E-013
  0.19705000000000000          9.4334178916942008E-014
  0.19789999999999996          7.7615318626264857E-014
  0.19874999999999998          5.2919803118403422E-014
  0.19960000000000000          2.0164165123683419E-014
  0.20044999999999996         -2.0282594660641688E-014
  0.20129999999999998         -6.7538510390395320E-014
  0.20215000000000000         -1.2016654485792036E-013
  0.20300000000000001         -1.7615635858772330E-013
  0.20384999999999998         -2.3293482586746609E-013
  0.20469999999999999         -2.8740962569560303E-013
  0.20555000000000001         -3.3604885896688503E-013
  0.20639999999999997         -3.7499831268430290E-013
  0.20724999999999999         -4.0023630683895821E-013
  0.20810000000000001         -4.0776386533165212E-013
  0.20894999999999997         -3.9382563713976335E-013
  0.20979999999999999         -3.5515540180516194E-013
  0.21065000000000000         -2.8923637972770299E-013
  0.21149999999999997         -1.9456613248951973E-013
  0.21234999999999998         -7.0911931108944326E-014
  0.21320000000000000          8.0457123301295249E-014
  0.21404999999999996          2.5657746581203557E-013
  0.21489999999999998          4.5265361977411641E-013
  0.21575000000000000          6.6199187562936869E-013
  0.21659999999999996          8.7601937984033417E-013
  0.21744999999999998          1.0844008141949904E-012
  0.21829999999999999          1.2752624917095464E-012
  0.21915000000000001          1.4355293822182905E-012
  0.21999999999999997          1.5513745783417720E-012
  0.22084999999999999          1.6087784311099074E-012
  0.22170000000000001          1.5941860887355139E-012
  0.22254999999999997          1.4952452112745545E-012
  0.22339999999999999          1.3016027510129008E-012
  0.22425000000000000          1.0057296579539186E-012
  0.22509999999999997          6.0373974494179062E-013
  0.22594999999999998          9.6161533600805174E-014
  0.22680000000000000         -5.1137789540297059E-013
  0.22764999999999996         -1.2076049407103292E-012
  0.22849999999999998         -1.9752312274978069E-012
  0.22935000000000000         -2.7908101772547982E-012
  0.23019999999999996         -3.6248560145578534E-012
  0.23104999999999998         -4.4422611654570390E-012
  0.23190000000000000         -5.2030346461946551E-012
  0.23275000000000001         -5.8633771474819846E-012
  0.23359999999999997         -6.3770920939136275E-012
  0.23444999999999999         -6.6973213480452453E-012
  0.23530000000000001         -6.7785769052962087E-012
  0.23614999999999997         -6.5790212786911532E-012
  0.23699999999999999         -6.0629378444847498E-012
  0.23785000000000001         -5.2033116715201272E-012
  0.23869999999999997         -3.9844291659432162E-012
  0.23954999999999999         -2.4043945485310523E-012
  0.24040000000000000         -4.7744753207315865E-013
  0.24124999999999996          1.7640344389053452E-012
  0.24209999999999998          4.2679755167805215E-012
  0.24295000000000000          6.9615950973548219E-012
  0.24379999999999996          9.7510749589773044E-012
  0.24464999999999998          1.2521993132595179E-011
  0.24550000000000000          1.5140615918240517E-011
  0.24634999999999996          1.7456090105369257E-011
  0.24719999999999998          1.9303588179339549E-011
  0.24804999999999999          2.0508397707172597E-011
  0.24890000000000001          2.0890945072071198E-011
  0.24974999999999997          2.0272678242061892E-011
  0.25059999999999999          1.8482735250088290E-011
  0.25145000000000001          1.5365263419710667E-011
  0.25229999999999997          1.0787247495416681E-011
  0.25314999999999999          4.6466653316496360E-012
  0.25400000000000000         -3.1192006068166502E-012
  0.25484999999999997         -1.2525510765177864E-011
  0.25569999999999998         -2.3531842385489674E-011
  0.25655000000000000         -3.6034592759684786E-011
  0.25739999999999996         -4.9859947432737519E-011
  0.25824999999999998         -6.4757541788447816E-011
  0.25910000000000000         -8.0394880735547799E-011
  0.25994999999999996         -9.6352542645023140E-011
  0.26079999999999998         -1.1212007414720421E-010
  0.26164999999999999         -1.2709246893574965E-010
  0.26249999999999996         -1.4056697643949786E-010
  0.26334999999999997         -1.5173980439196825E-010
  0.26419999999999999         -1.5970249882363499E-010
  0.26505000000000001         -1.6343708913580964E-010
  0.26589999999999997         -1.6180968250971455E-010
  0.26674999999999999         -1.5356144277499038E-010
  0.26760000000000000         -1.3729631627886724E-010
  0.26844999999999997         -1.1146429208141139E-010
  0.26929999999999998         -7.4339173883566729E-011
  0.27015000000000000         -2.3989507129124075E-011
  0.27099999999999996          4.1758532071734187E-011
  0.27184999999999998          1.2536774781470314E-010
  0.27270000000000000          2.2964730671656184E-010
  0.27354999999999996          3.5782247089160697E-010
  0.27439999999999998          5.1361824117009056E-010
  0.27524999999999999          7.0135871296428298E-010
  0.27609999999999996          9.2608394390500981E-010
  0.27694999999999997          1.1936855352543573E-009
  0.27779999999999999          1.5110643056706983E-009
  0.27865000000000001          1.8863096740764613E-009
  0.27949999999999997          2.3289047840089117E-009
  0.28034999999999999          2.8499596712309762E-009
  0.28120000000000001          3.4624723086587987E-009
  0.28204999999999997          4.1816245282111636E-009
  0.28289999999999998          5.0251104431746829E-009
  0.28375000000000000          6.0135062357377832E-009
  0.28459999999999996          7.1706793894884275E-009
  0.28544999999999998          8.5242385872946521E-009
  0.28630000000000000          1.0106037886374630E-008
  0.28714999999999996          1.1952727858494733E-008
  0.28799999999999998          1.4106362344442934E-008
  0.28885000000000000          1.6615069313627877E-008
  0.28969999999999996          1.9533782903435777E-008
  0.29054999999999997          2.2925055549817344E-008
  0.29139999999999999          2.6859922791990862E-008
  0.29224999999999995          3.1418861889900077E-008
  0.29309999999999997          3.6692827191699885E-008
  0.29394999999999999          4.2784361486059733E-008
  0.29480000000000001          4.9808807235139907E-008
  0.29564999999999997          5.7895604152088455E-008
  0.29649999999999999          6.7189656446530919E-008
  0.29735000000000000          7.7852796422489661E-008
  0.29819999999999997          9.0065371421528926E-008
  0.29904999999999998          1.0402785467328100E-007
  0.29990000000000000          1.1996253319058747E-007
  0.30074999999999996          1.3811531984960391E-007
  0.30159999999999998          1.5875753928456987E-007
  0.30245000000000000          1.8218779045520019E-007
  0.30329999999999996          2.0873380853763970E-007
  0.30414999999999998          2.3875436164256754E-007
  0.30499999999999999          2.7264094443277049E-007
  0.30584999999999996          3.1081961205293024E-007
  0.30669999999999997          3.5375252787387972E-007
  0.30754999999999999          4.0193947428493432E-007
  0.30840000000000001          4.5591908014542838E-007
  0.30924999999999997          5.1626989673759375E-007
  0.31009999999999999          5.8361089119319628E-007
  0.31095000000000000          6.5860203978914885E-007
  0.31179999999999997          7.4194402800814463E-007
  0.31264999999999998          8.3437738426274943E-007
  0.31350000000000000          9.3668181089182653E-007
  0.31434999999999996          1.0496736757474458E-006
  0.31519999999999998          1.1742036299746171E-006
  0.31605000000000000          1.3111532045397651E-006
  0.31689999999999996          1.4614303855571305E-006
  0.31774999999999998          1.6259642369054719E-006
  0.31859999999999999          1.8056981890354284E-006
  0.31944999999999996          2.0015833145017419E-006
  0.32029999999999997          2.2145693070647388E-006
  0.32114999999999999          2.4455943564428968E-006
  0.32199999999999995          2.6955745736597303E-006
  0.32284999999999997          2.9653906251436515E-006
  0.32369999999999999          3.2558754463338501E-006
  0.32455000000000001          3.5677981869486671E-006
  0.32539999999999997          3.9018481267758762E-006
  0.32624999999999998          4.2586178318130451E-006
  0.32710000000000000          4.6385843518718599E-006
  0.32794999999999996          5.0420885416801474E-006
  0.32879999999999998          5.4693165442138709E-006
  0.32965000000000000          5.9202756133568739E-006
  0.33049999999999996          6.3947747172314177E-006
  0.33134999999999998          6.8924008897109863E-006
  0.33220000000000000          7.4124975304552217E-006
  0.33304999999999996          7.9541401725968087E-006
  0.33389999999999997          8.5161183907724844E-006
  0.33474999999999999          9.0969079276854628E-006
  0.33559999999999995          9.6946565298128203E-006
  0.33644999999999997          1.0307160819801291E-005
  0.33729999999999999          1.0931852407375380E-005
  0.33815000000000001          1.1565779801550198E-005
  0.33899999999999997          1.2205598021204804E-005
  0.33984999999999999          1.2847554894203373E-005
  0.34070000000000000          1.3487491342789834E-005
  0.34154999999999996          1.4120834232742286E-005
  0.34239999999999998          1.4742600138240239E-005
  0.34325000000000000          1.5347398694280597E-005
  0.34409999999999996          1.5929445766324860E-005
  0.34494999999999998          1.6482576168644044E-005