 -0.12000000000000000          0.0000000000000000
 -0.11914999999999999          0.0000000000000000
 -0.11830000000000000          0.0000000000000000
 -0.11745000000000000         -1.3067621532332513E-018
 -0.11660000000000000         -7.2175916241415164E-018
 -0.11574999999999999         -2.0627299285887432E-017
 -0.11490000000000000         -3.8201956238076394E-017
 -0.11405000000000000         -4.4632378802042664E-017
 -0.11320000000000000         -1.3614457662036539E-017
 -0.11234999999999999          7.8329677468454270E-017
 -0.11150000000000000          2.2486447134208536E-016
 -0.11065000000000000          3.5921618242719213E-016
 -0.10979999999999999          3.3910940217749139E-016
 -0.10894999999999999         -3.0062222789509378E-017
 -0.10810000000000000         -9.1904850537515334E-016
 -0.10725000000000000         -2.3513549917333354E-015
 -0.10639999999999999         -4.0672906172713914E-015
 -0.10554999999999999         -5.4368198872436765E-015
 -0.10470000000000000         -5.4938431984837837E-015
 -0.10385000000000000         -3.1486438078735662E-015
 -0.10299999999999999          2.4123659738734058E-015
 -0.10214999999999999          1.1202975869557072E-014
 -0.10130000000000000          2.1931711626760064E-014
 -0.10045000000000000          3.1714370366882029E-014
  -9.9599999999999994E-002     3.6212888836316810E-014
  -9.8750000000000004E-002     3.0348905568263223E-014
  -9.7900000000000001E-002     9.6100449356303111E-015
  -9.7049999999999997E-002    -2.8213229801896437E-014
  -9.6199999999999994E-002    -8.1211351162443694E-014
  -9.5349999999999990E-002    -1.4195518515008139E-013
  -9.4500000000000001E-002    -1.9705386035849984E-013
  -9.3649999999999997E-002    -2.2812773311837857E-013
  -9.2799999999999994E-002    -2.1442880381413767E-013
  -9.1950000000000004E-002    -1.3700496653661156E-013
  -9.1100000000000000E-002     1.6081476030019416E-014
  -9.0249999999999997E-002     2.4432950046283572E-013
  -8.9399999999999993E-002     5.3026449671112098E-013
  -8.8549999999999990E-002     8.3696067168959005E-013
  -8.7700000000000000E-002     1.1086516904390421E-012
  -8.6849999999999997E-002     1.2751162993182713E-012
  -8.5999999999999993E-002     1.2600162097557824E-012
  -8.5150000000000003E-002     9.9274813862829770E-013
  -8.4300000000000000E-002     4.2272999098417163E-013
  -8.3449999999999996E-002    -4.6555705686178892E-013
  -8.2600000000000007E-002    -1.6389197329466855E-012
  -8.1749999999999989E-002    -3.0056456135462212E-012
  -8.0900000000000000E-002    -4.4120267902099203E-012
  -8.0049999999999996E-002    -5.6474459727098239E-012
  -7.9199999999999993E-002    -6.4596092288704873E-012
  -7.8350000000000003E-002    -6.5804747080667243E-012
  -7.7499999999999999E-002    -5.7619547325718712E-012
  -7.6649999999999996E-002    -3.8187242095582607E-012
  -7.5800000000000006E-002    -6.7356364708019794E-013
  -7.4949999999999989E-002     3.6010391298979715E-012
  -7.4099999999999999E-002     8.7524480072646556E-012
  -7.3249999999999996E-002     1.4336167724796143E-011
  -7.2399999999999992E-002     1.9729331271749615E-011
  -7.1550000000000002E-002     2.4173278645870323E-011
  -7.0699999999999999E-002     2.6845164057678499E-011
  -6.9849999999999995E-002     2.6953860531097949E-011
  -6.9000000000000006E-002     2.3850363659564384E-011
  -6.8149999999999988E-002     1.7138901484846065E-011
  -6.7299999999999999E-002     6.7724532076184414E-012
  -6.6449999999999995E-002    -6.8834299537435123E-012
  -6.5599999999999992E-002    -2.3031759028830205E-011
  -6.4750000000000002E-002    -4.0477632178859333E-011
  -6.3899999999999998E-002    -5.7714220903177657E-011
  -6.3049999999999995E-002    -7.3052864705666199E-011
  -6.2199999999999998E-002    -8.4781718769792618E-011
  -6.1350000000000002E-002    -9.1332299256353055E-011
  -6.0499999999999998E-002    -9.1431794262337542E-011
  -5.9650000000000002E-002    -8.4221475800653951E-011
  -5.8799999999999998E-002    -6.9327743578556012E-011
  -5.7950000000000002E-002    -4.6880569033278312E-011
  -5.7099999999999998E-002    -1.7483926471119566E-011
  -5.6249999999999994E-002     1.7849543186056307E-011
  -5.5400000000000005E-002     5.7781835154287989E-011
  -5.4550000000000001E-002     1.0073262083027579E-010
  -5.3699999999999998E-002     1.4494634478108862E-010
  -5.2849999999999994E-002     1.8853572178268518E-010
  -5.2000000000000005E-002     2.2950199740411606E-010
  -5.1150000000000001E-002     2.6574278217400847E-010
  -5.0299999999999997E-002     2.9506303249492465E-010
  -4.9449999999999994E-002     3.1520961042070397E-010
  -4.8600000000000004E-002     3.2394603802541870E-010
  -4.7750000000000001E-002     3.1917817196859736E-010
  -4.6899999999999997E-002     2.9913100777551620E-010
  -4.6049999999999994E-002     2.6256575620208675E-010
  -4.5200000000000004E-002     2.0901647830538271E-010
  -4.4350000000000001E-002     1.3901744757945013E-010
  -4.3499999999999997E-002     5.4293287176374182E-011
  -4.2649999999999993E-002    -4.2115447648183362E-011
  -4.1800000000000004E-002    -1.4580714250266494E-010
  -4.0950000000000000E-002    -2.5105931621379621E-010
  -4.0099999999999997E-002    -3.5094660401261579E-010
  -3.9249999999999993E-002    -4.3751364005214940E-010
  -3.8400000000000004E-002    -5.0197622124746599E-010
  -3.7550000000000000E-002    -5.3491399287745908E-010
  -3.6699999999999997E-002    -5.2642223332254571E-010
  -3.5850000000000007E-002    -4.6619584622276765E-010
  -3.5000000000000003E-002    -3.4352301225046897E-010
  -3.4150000000000000E-002    -1.4718414093311628E-010
  -3.3299999999999996E-002     1.3474322861808245E-010
  -3.2450000000000007E-002     5.1516505347026189E-010
  -3.1600000000000003E-002     1.0083107873125520E-009
  -3.0750000000000000E-002     1.6301173229092294E-009
  -2.9899999999999996E-002     2.3986397654519545E-009
  -2.9050000000000006E-002     3.3344725563380956E-009
  -2.8200000000000003E-002     4.4611606637683917E-009
  -2.7349999999999999E-002     5.8056396876229032E-009
  -2.6499999999999996E-002     7.3986969346892094E-009
  -2.5650000000000006E-002     9.2755043947906206E-009
  -2.4800000000000003E-002     1.1476266738696239E-008
  -2.3949999999999999E-002     1.4047036703256496E-008
  -2.3099999999999996E-002     1.7040776721516626E-008
  -2.2250000000000006E-002     2.0518672017074161E-008
  -2.1400000000000002E-002     2.4551779434818642E-008
  -2.0549999999999999E-002     2.9223034661528706E-008
  -1.9699999999999995E-002     3.4629577419370890E-008
  -1.8850000000000006E-002     4.0885422672551546E-008
  -1.8000000000000002E-002     4.8124391546924294E-008
  -1.7149999999999999E-002     5.6503351533308549E-008
  -1.6299999999999995E-002     6.6205509524491149E-008
  -1.5450000000000005E-002     7.7444066430141174E-008
  -1.4600000000000002E-002     9.0465892467306015E-008
  -1.3749999999999998E-002     1.0555538153004048E-007
  -1.2899999999999995E-002     1.2303876440141938E-007
  -1.2050000000000005E-002     1.4328833726094360E-007
  -1.1200000000000002E-002     1.6672749595837143E-007
  -1.0349999999999998E-002     1.9383615589427404E-007
  -9.5000000000000084E-003     2.2515685675750690E-007
  -8.6500000000000049E-003     2.6130097495671448E-007
  -7.8000000000000014E-003     3.0295697293102117E-007
  -6.9499999999999978E-003     3.5089833290096823E-007
  -6.1000000000000082E-003     4.0599248684092797E-007
  -5.2500000000000047E-003     4.6921069215339891E-007
  -4.4000000000000011E-003     5.4163824421789971E-007
  -3.5499999999999976E-003     6.2448584312462047E-007
  -2.7000000000000079E-003     7.1910125703022439E-007
  -1.8500000000000044E-003     8.2698113395237054E-007
  -1.0000000000000009E-003     9.4978442836068065E-007
  -1.4999999999999736E-004     1.0893457809138909E-006
   6.9999999999999230E-004     1.2476870988797743E-006
   1.5499999999999958E-003     1.4270336003259831E-006
   2.3999999999999994E-003     1.6298253670306705E-006
   3.2500000000000029E-003     1.8587342408848400E-006
   4.0999999999999925E-003     2.1166712168084631E-006
   4.9499999999999961E-003     2.4068024848862562E-006
   5.7999999999999996E-003     2.7325628367476859E-006
   6.6499999999999893E-003     3.0976550129814548E-006
   7.5000000000000067E-003     3.5060670620497292E-006
   8.3499999999999963E-003     3.9620755473436727E-006
   9.1999999999999860E-003     4.4702431557099711E-006
   1.0050000000000003E-002     5.0354251142795822E-006
   1.0899999999999993E-002     5.6627614132238148E-006
   1.1750000000000010E-002     6.3576772257928118E-006
   1.2600000000000000E-002     7.1258631162649285E-006
   1.3449999999999990E-002     7.9732694054024053E-006
   1.4300000000000007E-002     8.9060719686846357E-006
   1.5149999999999997E-002     9.9306657296845815E-006
   1.5999999999999986E-002     1.1053620641252261E-005
   1.6850000000000004E-002     1.2281638992071786E-005
   1.7699999999999994E-002     1.3621525811292751E-005
   1.8549999999999983E-002     1.5080113548703287E-005
   1.9400000000000001E-002     1.6664215552937294E-005
   2.0249999999999990E-002     1.8380529124201899E-005
   2.1100000000000008E-002     2.0235592479938183E-005
   2.1949999999999997E-002     2.2235662463508227E-005
   2.2799999999999987E-002     2.4386626314951623E-005
   2.3650000000000004E-002     2.6693866852776148E-005
   2.4499999999999994E-002     2.9162190779902272E-005
   2.5349999999999984E-002     3.1795655128009062E-005
   2.6200000000000001E-002     3.4597458221470283E-005
   2.7049999999999991E-002     3.7569764293311120E-005
   2.7900000000000008E-002     4.0713604927643596E-005
   2.8749999999999998E-002     4.4028706999943554E-005
   2.9599999999999987E-002     4.7513310575181015E-005
   3.0450000000000005E-002     5.1164011233338268E-005
   3.1299999999999994E-002     5.4975651572060359E-005
   3.2149999999999984E-002     5.8941084719441278E-005
   3.3000000000000002E-002     6.3051103967761812E-005
   3.3849999999999991E-002     6.7294199187267330E-005
   3.4700000000000009E-002     7.1656561223414617E-005
   3.5549999999999998E-002     7.6121743524630941E-005
   3.6399999999999988E-002     8.0670777848032023E-005
   3.7250000000000005E-002     8.5281880096327493E-005
   3.8099999999999995E-002     8.9930632861925409E-005
   3.8949999999999985E-002     9.4589567081005430E-005
   3.9800000000000002E-002     9.9228536272790693E-005
   4.0649999999999992E-002     1.0381432315291235E-004
   4.1500000000000009E-002     1.0831108366171571E-004
   4.2349999999999999E-002     1.1268021415010615E-004
   4.3199999999999988E-002     1.1688037152508997E-004
   4.4050000000000006E-002     1.2086772398752844E-004
   4.4899999999999995E-002     1.2459623459073755E-004
   4.5749999999999985E-002     1.2801776233960769E-004
   4.6600000000000003E-002     1.3108229202432085E-004
   4.7449999999999992E-002     1.3373847443316783E-004
   4.8299999999999982E-002     1.3593382013372040E-004
   4.9149999999999999E-002     1.3761511310303497E-004
   4.9999999999999989E-002     1.3872890526667720E-004
   5.0850000000000006E-002     1.3922215649826876E-004
   5.1699999999999996E-002     1.3904260659845520E-004
   5.2549999999999986E-002     1.3813918539655983E-004
   5.3400000000000003E-002     1.3646302828164997E-004
   5.4249999999999993E-002     1.3396752196847062E-004
   5.5099999999999982E-002     1.3060960108926417E-004
   5.5950000000000000E-002     1.2634995585403827E-004
   5.6799999999999989E-002     1.2115372442917600E-004
   5.7650000000000007E-002     1.1499102619249934E-004
   5.8499999999999996E-002     1.0783832407364488E-004
   5.9349999999999986E-002     9.9677953066445589E-005
   6.0200000000000004E-002     9.0499424247528210E-005
   6.1049999999999993E-002     8.0299728473261027E-005
   6.1899999999999983E-002     6.9083726262393760E-005
   6.2750000000000000E-002     5.6864710872489701E-005
   6.3599999999999990E-002     4.3664784861083881E-005
   6.4450000000000007E-002     2.9515331505284589E-005
   6.5299999999999997E-002     1.4456499995758157E-005
   6.6149999999999987E-002    -1.4615004165521987E-006
   6.7000000000000004E-002    -1.8179471727354803E-005
   6.7849999999999994E-002    -3.5628802317196233E-005
   6.8699999999999983E-002    -5.3731646278195000E-005
   6.9550000000000001E-002    -7.2400976645483993E-005
   7.0399999999999990E-002    -9.1541905401197900E-005
   7.1249999999999980E-002    -1.1105084943229741E-004
   7.2099999999999997E-002    -1.3081738132852817E-004
   7.2949999999999987E-002    -1.5072422945870435E-004
   7.3800000000000004E-002    -1.7064837187204268E-004
   7.4649999999999994E-002    -1.9046164565054836E-004
   7.5499999999999984E-002    -2.1003250349477837E-004
   7.6350000000000001E-002    -2.2922597455970757E-004
   7.7199999999999991E-002    -2.4790555195699127E-004
   7.8049999999999981E-002    -2.6593444479069392E-004
   7.8899999999999998E-002    -2.8317650215103430E-004
   7.9749999999999988E-002    -2.9949765770725516E-004
   8.0600000000000005E-002    -3.1476740293416897E-004
   8.1449999999999995E-002    -3.2885960746102655E-004
   8.2299999999999984E-002    -3.4165426932076300E-004
   8.3150000000000002E-002    -3.5303861646239965E-004
   8.3999999999999991E-002    -3.6290827547610780E-004
   8.4849999999999981E-002    -3.7116856198567144E-004
   8.5699999999999998E-002    -3.7773538268921406E-004
   8.6549999999999988E-002    -3.8253635410285755E-004
   8.7400000000000005E-002    -3.8551152314558534E-004
   8.8249999999999995E-002    -3.8661441271590358E-004
   8.9099999999999985E-002    -3.8581223740111355E-004
   8.9950000000000002E-002    -3.8308698769560980E-004
   9.0799999999999992E-002    -3.7843497540768423E-004
   9.1649999999999981E-002    -3.7186777187588445E-004
   9.2499999999999999E-002    -3.6341183767497545E-004
   9.3349999999999989E-002    -3.5310834927947680E-004
   9.4200000000000006E-002    -3.4101302117780331E-004
   9.5049999999999996E-002    -3.2719631887201362E-004
   9.5899999999999985E-002    -3.1174181815165323E-004
   9.6750000000000003E-002    -2.9474584896663593E-004
   9.7599999999999992E-002    -2.7631711058276640E-004
   9.8449999999999982E-002    -2.5657504605949345E-004
   9.9299999999999999E-002    -2.3564908674436120E-004
  0.10014999999999999         -2.1367767517662404E-004
  0.10099999999999998         -1.9080615470058537E-004
  0.10185000000000000         -1.6718612000054248E-004
  0.10269999999999999         -1.4297385413754830E-004
  0.10355000000000000         -1.1832860876925705E-004
  0.10439999999999999         -9.3411508809381540E-005
  0.10524999999999998         -6.8383934210052361E-005
  0.10610000000000000         -4.3406056768827782E-005
  0.10694999999999999         -1.8634806229439273E-005
  0.10779999999999998          5.7769086632755367E-006
  0.10865000000000000          2.9680804737393239E-005
  0.10949999999999999          5.2935979354566106E-005
  0.11035000000000000          7.5409136974941042E-005
  0.11119999999999999          9.6976213452210837E-005
  0.11204999999999998          1.1752271807104385E-004
  0.11290000000000000          1.3694451190993952E-004
  0.11374999999999999          1.5514880581170127E-004
  0.11459999999999998          1.7205503641294900E-004
  0.11545000000000000          1.8759487924896305E-004
  0.11629999999999999          2.0171228448993741E-004
  0.11715000000000000          2.1436401730405265E-004
  0.11799999999999999          2.2551959427905108E-004
  0.11884999999999998          2.3516091744697382E-004
  0.11970000000000000          2.4328224294166507E-004
  0.12054999999999999          2.4988967456880191E-004
  0.12139999999999998          2.5500069965733751E-004
  0.12225000000000000          2.5864368797000846E-004
  0.12309999999999999          2.6085695850273374E-004
  0.12395000000000000          2.6168864358131388E-004
  0.12479999999999999          2.6119491551861623E-004
  0.12564999999999998          2.5943960354457416E-004
  0.12650000000000000          2.5649361907275568E-004
  0.12734999999999999          2.5243353090050779E-004
  0.12819999999999998          2.4734066808173688E-004
  0.12905000000000000          2.4130025611861705E-004
  0.12989999999999999          2.3440038412842059E-004
  0.13074999999999998          2.2673096783480434E-004
  0.13159999999999999          2.1838311090194659E-004
  0.13245000000000001          2.0944795193263312E-004
  0.13329999999999997          2.0001591209196261E-004
  0.13414999999999999          1.9017600750623737E-004
  0.13500000000000001          1.8001496763577130E-004
  0.13584999999999997          1.6961673578682650E-004
  0.13669999999999999          1.5906182218062415E-004
  0.13755000000000001          1.4842668071936031E-004
  0.13839999999999997          1.3778340240596103E-004
  0.13924999999999998          1.2719931367229694E-004
  0.14010000000000000          1.1673669212051535E-004
  0.14094999999999996          1.0645250830093589E-004
  0.14179999999999998          9.6398285836606982E-005
  0.14265000000000000          8.6620190688101059E-005
  0.14350000000000002          7.7158731249653517E-005
  0.14434999999999998          6.8048969474781686E-005
  0.14520000000000000          5.9320657805247293E-005
  0.14605000000000001          5.0998238434144928E-005
  0.14689999999999998          4.3101107551118401E-005
  0.14774999999999999          3.5643835910526437E-005
  0.14860000000000001          2.8636496203330962E-005
  0.14944999999999997          2.2084816126895120E-005
  0.15029999999999999          1.5990530496268727E-005
  0.15115000000000001          1.0351855188430003E-005
  0.15199999999999997          5.1635673486300863E-006
  0.15284999999999999          4.1760436925448268E-007
  0.15370000000000000         -3.8967107223504870E-006
  0.15454999999999997         -7.7923436763184754E-006
  0.15539999999999998         -1.1284203807200492E-005
  0.15625000000000000         -1.4388767718422158E-005
  0.15709999999999996         -1.7123825109871996E-005
  0.15794999999999998         -1.9508266762476384E-005
  0.15880000000000000         -2.1561690627889349E-005
  0.15965000000000001         -2.3304116301423481E-005
  0.16049999999999998         -2.4755994865516390E-005
  0.16134999999999999         -2.5937774250677459E-005
  0.16220000000000001         -2.6869759903846401E-005
  0.16304999999999997         -2.7571991314997067E-005
  0.16389999999999999         -2.8064145554900650E-005
  0.16475000000000001         -2.8365280892492741E-005
  0.16559999999999997         -2.8493929529897938E-005
  0.16644999999999999         -2.8467796353131035E-005
  0.16730000000000000         -2.8303780815357002E-005
  0.16814999999999997         -2.8017989569676645E-005
  0.16899999999999998         -2.7625589314713843E-005
  0.16985000000000000         -2.7140900831574047E-005
  0.17069999999999996         -2.6577259605487897E-005
  0.17154999999999998         -2.5947144992855901E-005
  0.17240000000000000         -2.5262044872804985E-005
  0.17325000000000002         -2.4532570214851751E-005
  0.17409999999999998         -2.3768415194164700E-005
  0.17494999999999999         -2.2978432439012932E-005
  0.17580000000000001         -2.2170649232084041E-005
  0.17664999999999997         -2.1352290193671584E-005
  0.17749999999999999         -2.0529832411562947E-005
  0.17835000000000001         -1.9709068048065423E-005
  0.17919999999999997         -1.8895083025299741E-005
  0.18004999999999999         -1.8092325333023297E-005
  0.18090000000000001         -1.7304610824793560E-005
  0.18174999999999997         -1.6535251707177321E-005
  0.18259999999999998         -1.5786933221761669E-005
  0.18345000000000000         -1.5061869322090852E-005
  0.18429999999999996         -1.4361743129384939E-005
  0.18514999999999998         -1.3687902485512770E-005
  0.18600000000000000         -1.3041205083265848E-005
  0.18684999999999996         -1.2422218955941810E-005
  0.18769999999999998         -1.1831197353848056E-005
  0.18855000000000000         -1.1268116612330599E-005
  0.18940000000000001         -1.0732711345115941E-005
  0.19024999999999997         -1.0224501105005309E-005
  0.19109999999999999         -9.7428506116613777E-006
  0.19195000000000001         -9.2869653978875219E-006
  0.19279999999999997         -8.8559144769153646E-006
  0.19364999999999999         -8.4486725926033685E-006
  0.19450000000000001         -8.0641620601165939E-006
  0.19534999999999997         -7.7012225342141052E-006
  0.19619999999999999         -7.3586824309153779E-006
  0.19705000000000000         -7.0353592712286809E-006
  0.19789999999999996         -6.7301072108518473E-006
  0.19874999999999998         -6.4418049468392265E-006
  0.19960000000000000         -6.1693656931847317E-006
  0.20044999999999996         -5.9117918135653527E-006
  0.20129999999999998         -5.6681505443881210E-006
  0.20215000000000000         -5.4375619670004837E-006
  0.20300000000000001         -5.2192524269150795E-006
  0.20384999999999998         -5.0125134606094326E-006
  0.20469999999999999         -4.8167274646234752E-006
  0.20555000000000001         -4.6313449170269587E-006
  0.20639999999999997         -4.4558890522828731E-006
  0.20724999999999999         -4.2899282214331430E-006
  0.20810000000000001         -4.1330625012145320E-006
  0.20894999999999997         -3.9849526900121050E-006
  0.20979999999999999         -3.8452486814181996E-006
  0.21065000000000000         -3.7135923212115582E-006
  0.21149999999999997         -3.5896157816681712E-006
  0.21234999999999998         -3.4729189522594042E-006
  0.21320000000000000         -3.3630618637771818E-006
  0.21404999999999996         -3.2596020387298553E-006
  0.21489999999999998         -3.1620563039855488E-006
  0.21575000000000000         -3.0699130509663051E-006
  0.21659999999999996         -2.9826668767908246E-006
  0.21744999999999998         -2.8997953162598800E-006
  0.21829999999999999         -2.8207784426956666E-006
  0.21915000000000001         -2.7450881031272683E-006
  0.21999999999999997         -2.6722098351764393E-006
  0.22084999999999999         -2.6016268239852528E-006
  0.22170000000000001         -2.5328329751908022E-006
  0.22254999999999997         -2.4653210060508026E-006
  0.22339999999999999         -2.3986088317775480E-006
  0.22425000000000000         -2.3322417126474957E-006
  0.22509999999999997         -2.2658107481483146E-006
  0.22594999999999998         -2.1989572397593998E-006
  0.22680000000000000         -2.1314057825744697E-006
  0.22764999999999996         -2.0629532408811059E-006
  0.22849999999999998         -1.9935010596419334E-006
  0.22935000000000000         -1.9230581150849227E-006
  0.23019999999999996         -1.8517195507246680E-006
  0.23104999999999998         -1.7796793330547869E-006
  0.23190000000000000         -1.7072080349908145E-006
  0.23275000000000001         -1.6346619986987789E-006
  0.23359999999999997         -1.5624442502962585E-006
  0.23444999999999999         -1.4910091467938509E-006
  0.23530000000000001         -1.4208377092002980E-006
  0.23614999999999997         -1.3524324525715164E-006
  0.23699999999999999         -1.2862916415874342E-006
  0.23785000000000001         -1.2228928462722100E-006
  0.23869999999999997         -1.1626907798575357E-006
  0.23954999999999999         -1.1060820319400495E-006
  0.24040000000000000         -1.0534141475502132E-006
  0.24124999999999996         -1.0049655927997768E-006
  0.24209999999999998         -9.6092279123800225E-007
  0.24295000000000000         -9.2139711746965796E-007
  0.24379999999999996         -8.8641506844557249E-007
  0.24464999999999998         -8.5591880837986778E-007
  0.24550000000000000         -8.2978035131532661E-007
  0.24634999999999996         -8.0779394450382755E-007
  0.24719999999999998         -7.8969448638126101E-007
  0.24804999999999999         -7.7515736374429413E-007
  0.24890000000000001         -7.6380757243122208E-007
  0.24974999999999997         -7.5522718571044351E-007
  0.25059999999999999         -7.4897177140116500E-007
  0.25145000000000001         -7.4456658538780668E-007
  0.25229999999999997         -7.4152834589214288E-007
  0.25314999999999999         -7.3938094373261052E-007
  0.25400000000000000         -7.3767045490935098E-007
  0.25484999999999997         -7.3597606215630300E-007
  0.25569999999999998         -7.3393828627749948E-007
  0.25655000000000000         -7.3126280210184602E-007
  0.25739999999999996         -7.2773992839438006E-007
  0.25824999999999998         -7.2323247840120953E-007
  0.25910000000000000         -7.1769030779760976E-007
  0.25994999999999996         -7.1113860403763274E-007
  0.26079999999999998         -7.0367117099820743E-007
  0.26164999999999999         -6.9543240097495467E-007
  0.26249999999999996         -6.8661422155717736E-007
  0.26334999999999997         -6.7743813405184034E-007
  0.26419999999999999         -6.6814313004855677E-007
  0.26505000000000001         -6.5897902716553110E-007
  0.26589999999999997         -6.5019224192400024E-007
  0.26674999999999999         -6.4201236718017008E-007
  0.26760000000000000         -6.3465255744083395E-007
  0.26844999999999997         -6.2828386952832147E-007
  0.26929999999999998         -6.2304378235099987E-007
  0.27015000000000000         -6.1901342266040693E-007
  0.27099999999999996         -6.1622524985250746E-007
  0.27184999999999998         -6.1464262251937025E-007
  0.27270000000000000         -6.1417187686250594E-007
  0.27354999999999996         -6.1465916448152437E-007
  0.27439999999999998         -6.1589395338224785E-007
  0.27524999999999999         -6.1762466552366110E-007
  0.27609999999999996         -6.1955102893365274E-007
  0.27694999999999997         -6.2133941975585053E-007
  0.27779999999999999         -6.2262786980784588E-007
  0.27865000000000001         -6.2303942166778073E-007
  0.27949999999999997         -6.2217602312033639E-007
  0.28034999999999999         -6.1964167492409976E-007
  0.28120000000000001         -6.1505459900903297E-007
  0.28204999999999997         -6.0805142100862408E-007
  0.28289999999999998         -5.9831426101277496E-007
  0.28375000000000000         -5.8558880775734487E-007
  0.28459999999999996         -5.6969773891739521E-007
  0.28544999999999998         -5.5056599216793239E-007
  0.28630000000000000         -5.2821727589492616E-007
  0.28714999999999996         -5.0279668848969953E-007
  0.28799999999999998         -4.7454814933459403E-007
  0.28885000000000000         -4.4383010954806822E-007
  0.28969999999999996         -4.1108269461147052E-007
  0.29054999999999997         -3.7681106127673782E-007
  0.29139999999999999         -3.4156796240054830E-007
  0.29224999999999995         -3.0593258752057004E-007
  0.29309999999999997         -2.7049162743386834E-007
  0.29394999999999999         -2.3582116023818477E-007
  0.29480000000000001         -2.0247764119906345E-007
  0.29564999999999997         -1.7098570451053143E-007
  0.29649999999999999         -1.4183183641005390E-007
  0.29735000000000000         -1.1545382373783841E-007
  0.29819999999999997         -9.2236797060631094E-008
  0.29904999999999998         -7.2503709436293729E-008
  0.29990000000000000         -5.6503802620756206E-008
  0.30074999999999996         -4.4408301539803367E-008
  0.30159999999999998         -3.6299726305715088E-008
  0.30245000000000000         -3.2165489208605207E-008
  0.30329999999999996         -3.1895601120984408E-008
  0.30414999999999998         -3.5285248007287356E-008
  0.30499999999999999         -4.2037208746572095E-008
  0.30584999999999996         -5.1774342112333424E-008
  0.30669999999999997         -6.4050085524100668E-008
  0.30754999999999999         -7.8363063477029330E-008
  0.30840000000000001         -9.4177313784772062E-008
  0.30924999999999997         -1.1094100874926294E-007
  0.31009999999999999         -1.2810508845496204E-007
  0.31095000000000000         -1.4514474261292594E-007
  0.31179999999999997         -1.6157519239322401E-007
  0.31264999999999998         -1.7696878469063020E-007
  0.31350000000000000         -1.9097219300552888E-007
  0.31434999999999996         -2.0331056633380258E-007
  0.31519999999999998         -2.1379778655906714E-007
  0.31605000000000000         -2.2233263032405121E-007
  0.31689999999999996         -2.2890023096503192E-007
  0.31774999999999998         -2.3356348872124245E-007
  0.31859999999999999         -2.3644958412871894E-007
  0.31944999999999996         -2.3774003716883234E-007
  0.32029999999999997         -2.3766012765706401E-007
  0.32114999999999999         -2.3646704439764414E-007
  0.32199999999999995         -2.3444198931349969E-007
  0.32284999999999997         -2.3187970194343015E-007
  0.32369999999999999         -2.2908753842941819E-007
  0.32455000000000001         -2.2637388878880137E-007
  0.32539999999999997         -2.2404411566372606E-007
  0.32624999999999998         -2.2238580896505612E-007
  0.32710000000000000         -2.2166640484129541E-007
  0.32794999999999996         -2.2210630090813382E-007
  0.32879999999999998         -2.2387062530838021E-007
  0.32965000000000000         -2.2705571599290895E-007
  0.33049999999999996         -2.3167218178006878E-007
  0.33134999999999998         -2.3764072233537155E-007
  0.33220000000000000         -2.4478740643920371E-007
  0.33304999999999996         -2.5285469681038361E-007
  0.33389999999999997         -2.6150540931427266E-007
  0.33474999999999999         -2.7034048626421820E-007
  0.33559999999999995         -2.7892555809034083E-007
  0.33644999999999997         -2.8680222595636698E-007
  0.33729999999999999         -2.9351701640584824E-007
  0.33815000000000001         -2.9863197176326978E-007
  0.33899999999999997         -3.0174423177412633E-007
  0.33984999999999999         -3.0249569849395714E-007
  0.34070000000000000         -3.0058659762283858E-007
  0.34154999999999996         -2.9577875384172893E-007
  0.34239999999999998         -2.8790483229283282E-007