 -0.12000000000000000          0.0000000000000000
 -0.11914999999999999          0.0000000000000000
 -0.11830000000000000          0.0000000000000000
 -0.11745000000000000          0.0000000000000000
 -0.11660000000000000          0.0000000000000000
 -0.11574999999999999          0.0000000000000000
 -0.11490000000000000          1.1974421933133997E-026
 -0.11405000000000000          1.2649127414942404E-025
 -0.11320000000000000          6.8807123241207711E-025
 -0.11234999999999999          2.5337745749709193E-024
 -0.11150000000000000          6.9697550999649933E-024
 -0.11065000000000000          1.4804806236250604E-023
 -0.10979999999999999          2.3717907823891736E-023
 -0.10894999999999999          2.4088717165540235E-023
 -0.10810000000000000         -4.4681336204064080E-024
 -0.10725000000000000         -9.0709323769257778E-023
 -0.10639999999999999         -2.5637160743599265E-022
 -0.10554999999999999         -4.8241754781695347E-022
 -0.10470000000000000         -6.5980156552786466E-022
 -0.10385000000000000         -5.4293175069153091E-022
 -0.10299999999999999          2.5739034665950708E-022
 -0.10214999999999999          2.1917983631938426E-021
 -0.10130000000000000          5.5565030739213272E-021
 -0.10045000000000000          1.0134548707767475E-020
  -9.9599999999999994E-002     1.4754205751150745E-020
  -9.8750000000000004E-002     1.6917343733520006E-020
  -9.7900000000000001E-002     1.2739024723478430E-020
  -9.7049999999999997E-002    -2.5186893996038537E-021
  -9.6199999999999994E-002    -3.3086963737873117E-020
  -9.5349999999999990E-002    -8.0449605372428374E-020
  -9.4500000000000001E-002    -1.4047209089763149E-019
  -9.3649999999999997E-002    -2.0054169200087943E-019
  -9.2799999999999994E-002    -2.3774990659645558E-019
  -9.1950000000000004E-002    -2.1941132775141032E-019
  -9.1100000000000000E-002    -1.0721514085851691E-019
  -9.0249999999999997E-002     1.3407123759502340E-019
  -8.9399999999999993E-002     5.2325196308019777E-019
  -8.8549999999999990E-002     1.0458754334648102E-018
  -8.7700000000000000E-002     1.6366981600204954E-018
  -8.6849999999999997E-002     2.1659273929701013E-018
  -8.5999999999999993E-002     2.4352267981961553E-018
  -8.5150000000000003E-002     2.1902717744396590E-018
  -8.4300000000000000E-002     1.1561752036324466E-018
  -8.3449999999999996E-002    -9.0026053211952058E-019
  -8.2600000000000007E-002    -4.0822940700890350E-018
  -8.1749999999999989E-002    -8.2572114441012631E-018
  -8.0900000000000000E-002    -1.2950260112726978E-017
  -8.0049999999999996E-002    -1.7266584432327622E-017
  -7.9199999999999993E-002    -1.9877819909541832E-017
  -7.8350000000000003E-002    -1.9113252669054772E-017
  -7.7499999999999999E-002    -1.3189707342773486E-017
  -7.6649999999999996E-002    -5.9576337708249987E-019
  -7.5800000000000006E-002     1.9386483067297799E-017
  -7.4949999999999989E-002     4.6083922942209604E-017
  -7.4099999999999999E-002     7.6871465161702076E-017
  -7.3249999999999996E-002     1.0680534795133242E-016
  -7.2399999999999992E-002     1.2863398455428755E-016
  -7.1550000000000002E-002     1.3335932175510708E-016
  -7.0699999999999999E-002     1.1146353543170689E-016
  -6.9849999999999995E-002     5.4804409822419780E-017
  -6.9000000000000006E-002    -4.0973644327746881E-017
  -6.8149999999999988E-002    -1.7384742828680898E-016
  -6.7299999999999999E-002    -3.3314512047212526E-016
  -6.6449999999999995E-002    -4.9821689070268101E-016
  -6.5599999999999992E-002    -6.3867901022288164E-016
  -6.4750000000000002E-002    -7.1674220856379479E-016
  -6.3899999999999998E-002    -6.9186965073719367E-016
  -6.3049999999999995E-002    -5.2760543434661929E-016
  -6.2199999999999998E-002    -1.9993721879943159E-016
  -6.1350000000000002E-002     2.9393301182370923E-016
  -6.0499999999999998E-002     9.2792867210349851E-016
  -5.9650000000000002E-002     1.6422654844149622E-015
  -5.8799999999999998E-002     2.3430978875578520E-015
  -5.7950000000000002E-002     2.9079156733357572E-015
  -5.7099999999999998E-002     3.1972808523655671E-015
  -5.6249999999999994E-002     3.0725745333951699E-015
  -5.5400000000000005E-002     2.4183850881367925E-015
  -5.4550000000000001E-002     1.1671427678984984E-015
  -5.3699999999999998E-002    -6.7723364306498602E-016
  -5.2849999999999994E-002    -3.0204326270556125E-015
  -5.2000000000000005E-002    -5.6674196393277171E-015
  -5.1150000000000001E-002    -8.3240919061856047E-015
  -5.0299999999999997E-002    -1.0613352145918700E-014
  -4.9449999999999994E-002    -1.2106623131808890E-014
  -4.8600000000000004E-002    -1.2369965583722635E-014
  -4.7750000000000001E-002    -1.1021889975758942E-014
  -4.6899999999999997E-002    -7.7977547347926401E-015
  -4.6049999999999994E-002    -2.6137527385588882E-015
  -4.5200000000000004E-002     4.3781068985228921E-015
  -4.4350000000000001E-002     1.2753231183981202E-014
  -4.3499999999999997E-002     2.1804843559007608E-014
  -4.2649999999999993E-002     3.0568801914216580E-014
  -4.1800000000000004E-002     3.7886924118542950E-014
  -4.0950000000000000E-002     4.2508806722849492E-014
  -4.0099999999999997E-002     4.3226428757649531E-014
  -3.9249999999999993E-002     3.9030652902267613E-014
  -3.8400000000000004E-002     2.9273303966293573E-014
  -3.7550000000000000E-002     1.3815091916089366E-014
  -3.6699999999999997E-002    -6.8618180572338816E-015
  -3.5850000000000007E-002    -3.1596280847769996E-014
  -3.5000000000000003E-002    -5.8560265337295114E-014
  -3.4150000000000000E-002    -8.5348275823162949E-014
  -3.3299999999999996E-002    -1.0914253722922033E-013
  -3.2450000000000007E-002    -1.2694227859997839E-013
  -3.1600000000000003E-002    -1.3583738647341816E-013
  -3.0750000000000000E-002    -1.3330075576619128E-013
  -2.9899999999999996E-002    -1.1747101476833016E-013
  -2.9050000000000006E-002    -8.7398932780999043E-014
  -2.8200000000000003E-002    -4.3235492645028854E-014
  -2.7349999999999999E-002     1.3653176206847133E-014
  -2.6499999999999996E-002     8.0651236874895168E-014
  -2.5650000000000006E-002     1.5394009066277288E-013
  -2.4800000000000003E-002     2.2862324041625523E-013
  -2.3949999999999999E-002     2.9892512225078383E-013
  -2.3099999999999996E-002     3.5845950034079966E-013
  -2.2250000000000006E-002     4.0056690266960310E-013
  -2.1400000000000002E-002     4.1871922433891584E-013
  -2.0549999999999999E-002     4.0698803780154438E-013
  -1.9699999999999995E-002     3.6056763364515659E-013
  -1.8850000000000006E-002     2.7633075228785897E-013
  -1.8000000000000002E-002     1.5338197963788467E-013
  -1.7149999999999999E-002    -6.4402093834319874E-015
  -1.6299999999999995E-002    -1.9817401242920956E-013
  -1.5450000000000005E-002    -4.1352115478848707E-013
  -1.4600000000000002E-002    -6.4086971904336418E-013
  -1.3749999999999998E-002    -8.6559832169919202E-013
  -1.2899999999999995E-002    -1.0706773497608532E-012
  -1.2050000000000005E-002    -1.2375563479600934E-012
  -1.1200000000000002E-002    -1.3472957794246627E-012
  -1.0349999999999998E-002    -1.3818690401707587E-012
  -9.5000000000000084E-003    -1.3255507774911196E-012
  -8.6500000000000049E-003    -1.1662910662774506E-012
  -7.8000000000000014E-003    -8.9698931164769095E-013
  -6.9499999999999978E-003    -5.1659140815097629E-013
  -6.1000000000000082E-003    -3.0944202713241676E-014
  -5.2500000000000047E-003     5.4663172969775353E-013
  -4.4000000000000011E-003     1.1950879858390387E-012
  -3.5499999999999976E-003     1.8857428545473418E-012
  -2.7000000000000079E-003     2.5827708836114122E-012
  -1.8500000000000044E-003     3.2441140682857188E-012
  -1.0000000000000009E-003     3.8228767899304615E-012
  -1.4999999999999736E-004     4.2692186420747380E-012
   6.9999999999999230E-004     4.5327553078728428E-012
   1.5499999999999958E-003     4.5654183078163632E-012
   2.3999999999999994E-003     4.3246689281992250E-012
   3.2500000000000029E-003     3.7768923568607004E-012
   4.0999999999999925E-003     2.9007419060629850E-012
   4.9499999999999961E-003     1.6901667936938557E-012
   5.7999999999999996E-003     1.5685541779281782E-013
   6.6499999999999893E-003    -1.6681342622983950E-012
   7.5000000000000067E-003    -3.7337474477514190E-012
   8.3499999999999963E-003    -5.9693357662763417E-012
   9.1999999999999860E-003    -8.2860931678459593E-012
   1.0050000000000003E-002    -1.0579395631831348E-011
   1.0899999999999993E-002    -1.2731849329629418E-011
   1.1750000000000010E-002    -1.4616837411693988E-011
   1.2600000000000000E-002    -1.6102432219279948E-011
   1.3449999999999990E-002    -1.7055497320192664E-011
   1.4300000000000007E-002    -1.7346027881601844E-011
   1.5149999999999997E-002    -1.6851761121122817E-011
   1.5999999999999986E-002    -1.5463173275142564E-011
   1.6850000000000004E-002    -1.3089065208930604E-011
   1.7699999999999994E-002    -9.6627579000103974E-012
   1.8549999999999983E-002    -5.1489754653238532E-012
   1.9400000000000001E-002     4.4886301412908020E-013
   2.0249999999999990E-002     7.0811582203364521E-012
   2.1100000000000008E-002     1.4645053414532355E-011
   2.1949999999999997E-002     2.2978465948685477E-011
   2.2799999999999987E-002     3.1855918913113637E-011
   2.3650000000000004E-002     4.0987018850357673E-011
   2.4499999999999994E-002     5.0018390007538659E-011
   2.5349999999999984E-002     5.8539588818813183E-011
   2.6200000000000001E-002     6.6093520109737700E-011
   2.7049999999999991E-002     7.2191725651642617E-011
   2.7900000000000008E-002     7.6334428070525245E-011
   2.8749999999999998E-002     7.8035346325438584E-011
   2.9599999999999987E-002     7.6850692952723530E-011
   3.0450000000000005E-002     7.2411659477815498E-011
   3.1299999999999994E-002     6.4459978909938188E-011
   3.2149999999999984E-002     5.2884806568204410E-011
   3.3000000000000002E-002     3.7760401508822188E-011
   3.3849999999999991E-002     1.9382691815354419E-011
   3.4700000000000009E-002    -1.6965934860178831E-012
   3.5549999999999998E-002    -2.4639372882817218E-011
   3.6399999999999988E-002    -4.8296299107008375E-011
   3.7250000000000005E-002    -7.1188618868484150E-011
   3.8099999999999995E-002    -9.1496168414741850E-011
   3.8949999999999985E-002    -1.0705496965215499E-010
   3.9800000000000002E-002    -1.1536027524007812E-010
   4.0649999999999992E-002    -1.1357710244890061E-010
   4.1500000000000009E-002    -9.8554553480378946E-011
   4.2349999999999999E-002    -6.6842459852747191E-011
   4.3199999999999988E-002    -1.4706622888660597E-011
   4.4050000000000006E-002     6.1862456188151164E-011
   4.4899999999999995E-002     1.6714934370522669E-010
   4.5749999999999985E-002     3.0573118650452608E-010
   4.6600000000000003E-002     4.8251185942562764E-010
   4.7449999999999992E-002     7.0278291089905109E-010
   4.8299999999999982E-002     9.7231229323097677E-010
   4.9149999999999999E-002     1.2974677304162103E-009
   4.9999999999999989E-002     1.6853712682161929E-009
   5.0850000000000006E-002     2.1440974870472484E-009
   5.1699999999999996E-002     2.6829066826542893E-009
   5.2549999999999986E-002     3.3125157448929174E-009
   5.3400000000000003E-002     4.0454183122738310E-009
   5.4249999999999993E-002     4.8962294834616470E-009
   5.5099999999999982E-002     5.8820827662675631E-009
   5.5950000000000000E-002     7.0230770600682546E-009
   5.6799999999999989E-002     8.3427493913186867E-009
   5.7650000000000007E-002     9.8685986110154567E-009
   5.8499999999999996E-002     1.1632662936116809E-008
   5.9349999999999986E-002     1.3672169850663915E-008
   6.0200000000000004E-002     1.6030231529219124E-008
   6.1049999999999993E-002     1.8756609059397724E-008
   6.1899999999999983E-002     2.1908567103934581E-008
   6.2750000000000000E-002     2.5551812907785501E-008
   6.3599999999999990E-002     2.9761575208873278E-008
   6.4450000000000007E-002     3.4623674540717903E-008
   6.5299999999999997E-002     4.0235836592778794E-008
   6.6149999999999987E-002     4.6709072729446723E-008
   6.7000000000000004E-002     5.4169246513187338E-008
   6.7849999999999994E-002     6.2758805732102005E-008
   6.8699999999999983E-002     7.2638543114992984E-008
   6.9550000000000001E-002     8.3989610441445198E-008
   7.0399999999999990E-002     9.7015875012570746E-008
   7.1249999999999980E-002     1.1194616108783759E-007
   7.2099999999999997E-002     1.2903704981166197E-007
   7.2949999999999987E-002     1.4857536263477555E-007
   7.3800000000000004E-002     1.7088128540416728E-007
   7.4649999999999994E-002     1.9631147679671670E-007
   7.5499999999999984E-002     2.2526196291792946E-007
   7.6350000000000001E-002     2.5817164849314590E-007
   7.7199999999999991E-002     2.9552598259072553E-007
   7.8049999999999981E-002     3.3786058836226286E-007
   7.8899999999999998E-002     3.8576399474880340E-007
   7.9749999999999988E-002     4.3988223154886294E-007
   8.0600000000000005E-002     5.0092109331658937E-007
   8.1449999999999995E-002     5.6965105046904896E-007
   8.2299999999999984E-002     6.4690984894114354E-007
   8.3150000000000002E-002     7.3360336460033352E-007
   8.3999999999999991E-002     8.3071297567181359E-007
   8.4849999999999981E-002     9.3929413099947256E-007
   8.5699999999999998E-002     1.0604793231933451E-006
   8.6549999999999988E-002     1.1954807342339634E-006
   8.7400000000000005E-002     1.3455877028597579E-006
   8.8249999999999995E-002     1.5121699622670835E-006
   8.9099999999999985E-002     1.6966757107252980E-006
   8.9950000000000002E-002     1.9006279021554922E-006
   9.0799999999999992E-002     2.1256190036742870E-006
   9.1649999999999981E-002     2.3733143890862836E-006
   9.2499999999999999E-002     2.6454337698131928E-006
   9.3349999999999989E-002     2.9437544916475489E-006
   9.4200000000000006E-002     3.2700903320499723E-006
   9.5049999999999996E-002     3.6262868438594663E-006
   9.5899999999999985E-002     4.0142074820326932E-006
   9.6750000000000003E-002     4.4357131920444550E-006
   9.7599999999999992E-002     4.8926356023672122E-006
   9.8449999999999982E-002     5.3867695505686773E-006
   9.9299999999999999E-002     5.9198422780995525E-006
  0.10014999999999999          6.4934785324941118E-006
  0.10099999999999998          7.1091906350288860E-006
  0.10185000000000000          7.7683219169347772E-006
  0.10269999999999999          8.4720280347986388E-006
  0.10355000000000000          9.2212400532409405E-006
  0.10439999999999999          1.0016606829583450E-005
  0.10524999999999998          1.0858464525766546E-005
  0.10610000000000000          1.1746808033519859E-005
  0.10694999999999999          1.2681240258369287E-005
  0.10779999999999998          1.3660912551901992E-005
  0.10865000000000000          1.4684497632522646E-005
  0.10949999999999999          1.5750141767085369E-005
  0.11035000000000000          1.6855408664498062E-005
  0.11119999999999999          1.7997254363453868E-005
  0.11204999999999998          1.9172000231926121E-005
  0.11290000000000000          2.0375245246686586E-005
  0.11374999999999999          2.1601894241429619E-005
  0.11459999999999998          2.2846113432079608E-005
  0.11545000000000000          2.4101226321951067E-005
  0.11629999999999999          2.5359853927074497E-005
  0.11715000000000000          2.6613813718239238E-005
  0.11799999999999999          2.7854103120321352E-005
  0.11884999999999998          2.9070932693552821E-005
  0.11970000000000000          3.0253826960748783E-005
  0.12054999999999999          3.1391488195830785E-005
  0.12139999999999998          3.2471932443563898E-005
  0.12225000000000000          3.3482554272079320E-005
  0.12309999999999999          3.4410214665508009E-005
  0.12395000000000000          3.5241208458428704E-005
  0.12479999999999999          3.5961434343298019E-005
  0.12564999999999998          3.6556376023890411E-005
  0.12650000000000000          3.7011442997724707E-005
  0.12734999999999999          3.7312037455570612E-005
  0.12819999999999998          3.7443368470449946E-005
  0.12905000000000000          3.7391036891932097E-005
  0.12989999999999999          3.7141026136106756E-005
  0.13074999999999998          3.6679585377731482E-005
  0.13159999999999999          3.5994121389833469E-005
  0.13245000000000001          3.5072457813651239E-005
  0.13329999999999997          3.3903733850708700E-005
  0.13414999999999999          3.2478199177823428E-005
  0.13500000000000001          3.0787678598762972E-005
  0.13584999999999997          2.8825463939528982E-005
  0.13669999999999999          2.6586645393715527E-005
  0.13755000000000001          2.4068201453172798E-005
  0.13839999999999997          2.1269318278746301E-005
  0.13924999999999998          1.8191276906510084E-005
  0.14010000000000000          1.4837670707198348E-005
  0.14094999999999996          1.1214661752893104E-005
  0.14179999999999998          7.3307945572882070E-006
  0.14265000000000000          3.1973291933229569E-006
  0.14350000000000002         -1.1720175234948609E-006
  0.14434999999999998         -5.7606399795621248E-006
  0.14520000000000000         -1.0549730831136789E-005
  0.14605000000000001         -1.5517540165913298E-005
  0.14689999999999998         -2.0639985109621382E-005
  0.14774999999999999         -2.5890736800475532E-005
  0.14860000000000001         -3.1241150150380093E-005
  0.14944999999999997         -3.6660517056313934E-005
  0.15029999999999999         -4.2116296785344565E-005
  0.15115000000000001         -4.7574414922347073E-005
  0.15199999999999997         -5.2999344221381852E-005
  0.15284999999999999         -5.8354490093086669E-005
  0.15370000000000000         -6.3602470220894589E-005
  0.15454999999999997         -6.8705575311699498E-005
  0.15539999999999998         -7.3625782180664070E-005
  0.15625000000000000         -7.8325395183356369E-005
  0.15709999999999996         -8.2767285365592270E-005
  0.15794999999999998         -8.6915322521799080E-005
  0.15880000000000000         -9.0734802541863900E-005
  0.15965000000000001         -9.4192357342256109E-005
  0.16049999999999998         -9.7257019583431997E-005
  0.16134999999999999         -9.9899933293404080E-005
  0.16220000000000001         -1.0209509585034065E-004
  0.16304999999999997         -1.0381939423902630E-004
  0.16389999999999999         -1.0505311263257498E-004
  0.16475000000000001         -1.0577999693863985E-004
  0.16559999999999997         -1.0598748612100578E-004
  0.16644999999999999         -1.0566698944402303E-004
  0.16730000000000000         -1.0481383598247758E-004
  0.16814999999999997         -1.0342771158862048E-004
  0.16899999999999998         -1.0151207732399036E-004
  0.16985000000000000         -9.9075053077244283E-005
  0.17069999999999996         -9.6128628800428608E-005
  0.17154999999999998         -9.2688893497125413E-005
  0.17240000000000000         -8.8776046454741399E-005
  0.17325000000000002         -8.4413898241841672E-005
  0.17409999999999998         -7.9629652591719154E-005
  0.17494999999999999         -7.4454131752836332E-005
  0.17580000000000001         -6.8920829642321623E-005
  0.17664999999999997         -6.3066512050387221E-005
  0.17749999999999999         -5.6929532266091021E-005
  0.17835000000000001         -5.0550845689283002E-005
  0.17919999999999997         -4.3973146005552450E-005
  0.18004999999999999         -3.7239924286783423E-005
  0.18090000000000001         -3.0395527925974867E-005
  0.18174999999999997         -2.3484977834040729E-005
  0.18259999999999998         -1.6553446601102185E-005
  0.18345000000000000         -9.6449956904238428E-006
  0.18429999999999996         -2.8032480286063729E-006
  0.18514999999999998          3.9295972557317479E-006
  0.18600000000000000          1.0512441647114525E-005
  0.18684999999999996          1.6906716829707087E-005
  0.18769999999999998          2.3075815152662833E-005
  0.18855000000000000          2.8985948091545038E-005
  0.18940000000000001          3.4605320020960244E-005
  0.19024999999999997          3.9906118348674184E-005
  0.19109999999999999          4.4863106903260279E-005
  0.19195000000000001          4.9454391281536785E-005
  0.19279999999999997          5.3661597926763894E-005
  0.19364999999999999          5.7469906367894930E-005
  0.19450000000000001          6.0868361211533483E-005
  0.19534999999999997          6.3848985201105920E-005
  0.19619999999999999          6.6407864955248460E-005
  0.19705000000000000          6.8543867756276947E-005
  0.19789999999999996          7.0259607743839865E-005
  0.19874999999999998          7.1560625336525291E-005
  0.19960000000000000          7.2455669201034102E-005
  0.20044999999999996          7.2956073789578557E-005
  0.20129999999999998          7.3075890221356484E-005
  0.20215000000000000          7.2831333267763871E-005
  0.20300000000000001          7.2240534595055872E-005
  0.20384999999999998          7.1323790192070652E-005
  0.20469999999999999          7.0102582333941580E-005
  0.20555000000000001          6.8599927711202873E-005
  0.20639999999999997          6.6839790649987662E-005
  0.20724999999999999          6.4846979761776262E-005
  0.20810000000000001          6.2646503671340986E-005
  0.20894999999999997          6.0263962197846033E-005
  0.20979999999999999          5.7724646196760745E-005
  0.21065000000000000          5.5053747361130206E-005
  0.21149999999999997          5.2276076868004189E-005
  0.21234999999999998          4.9415690096297185E-005
  0.21320000000000000          4.6495861923309460E-005
  0.21404999999999996          4.3538897649882372E-005
  0.21489999999999998          4.0565860779633744E-005
  0.21575000000000000          3.7596612766756075E-005
  0.21659999999999996          3.4649625602457838E-005
  0.21744999999999998          3.1741811003614457E-005
  0.21829999999999999          2.8888715509636168E-005
  0.21915000000000001          2.6104367168140543E-005
  0.21999999999999997          2.3401150137418023E-005
  0.22084999999999999          2.0789939015045859E-005
  0.22170000000000001          1.8280119010657125E-005
  0.22254999999999997          1.5879528026479306E-005
  0.22339999999999999          1.3594653100951416E-005
  0.22425000000000000          1.1430537594363634E-005
  0.22509999999999997          9.3909182789182131E-006
  0.22594999999999998          7.4782081429374325E-006
  0.22680000000000000          5.6936539497903977E-006
  0.22764999999999996          4.0374154314921654E-006
  0.22849999999999998          2.5084985381491864E-006
  0.22935000000000000          1.1050599808780351E-006
  0.23019999999999996         -1.7564207126509156E-007
  0.23104999999999998         -1.3371308319743369E-006
  0.23190000000000000         -2.3834036883038372E-006
  0.23275000000000001         -3.3191885282430945E-006
  0.23359999999999997         -4.1493830144593604E-006
  0.23444999999999999         -4.8793934065399710E-006
  0.23530000000000001         -5.5147510698550691E-006
  0.23614999999999997         -6.0611452749009805E-006
  0.23699999999999999         -6.5244313534794167E-006
  0.23785000000000001         -6.9104320703744144E-006
  0.23869999999999997         -7.2250146289182883E-006
  0.23954999999999999         -7.4739787662428479E-006
  0.24040000000000000         -7.6629739714592383E-006
  0.24124999999999996         -7.7975932776654830E-006
  0.24209999999999998         -7.8832637621578861E-006
  0.24295000000000000         -7.9250534246716956E-006
  0.24379999999999996         -7.9279207762740210E-006
  0.24464999999999998         -7.8965513719566846E-006
  0.24550000000000000         -7.8352918472484440E-006
  0.24634999999999996         -7.7481658209256612E-006
  0.24719999999999998         -7.6388421883825978E-006
  0.24804999999999999         -7.5107284624091542E-006
  0.24890000000000001         -7.3668329933492580E-006
  0.24974999999999997         -7.2099048998549225E-006
  0.25059999999999999         -7.0423318769660499E-006
  0.25145000000000001         -6.8663343107199153E-006
  0.25229999999999997         -6.6838245790603517E-006
  0.25314999999999999         -6.4964476668101286E-006
  0.25400000000000000         -6.3056929205638683E-006
  0.25484999999999997         -6.1128827258491644E-006
  0.25569999999999998         -5.9191014793421994E-006
  0.25655000000000000         -5.7253039377421383E-006
  0.25739999999999996         -5.5322429847230860E-006
  0.25824999999999998         -5.3405344773368900E-006
  0.25910000000000000         -5.1506780386797217E-006
  0.25994999999999996         -4.9629807570496354E-006
  0.26079999999999998         -4.7776922309025636E-006
  0.26164999999999999         -4.5949062633219032E-006
  0.26249999999999996         -4.4146792020304119E-006
  0.26334999999999997         -4.2370247010755468E-006
  0.26419999999999999         -4.0619280037098696E-006
  0.26505000000000001         -3.8893902340503344E-006
  0.26589999999999997         -3.7194151313467527E-006
  0.26674999999999999         -3.5520788650899821E-006
  0.26760000000000000         -3.3874654486900864E-006
  0.26844999999999997         -3.2257056864605110E-006
  0.26929999999999998         -3.0669619660918208E-006
  0.27015000000000000         -2.9113980315906530E-006
  0.27099999999999996         -2.7591974406447803E-006
  0.27184999999999998         -2.6105065705170837E-006
  0.27270000000000000         -2.4654905887210178E-006
  0.27354999999999996         -2.3242809067943982E-006
  0.27439999999999998         -2.1870369685328327E-006
  0.27524999999999999         -2.0539020795304137E-006
  0.27609999999999996         -1.9250392600481952E-006
  0.27694999999999997         -1.8006578411512733E-006
  0.27779999999999999         -1.6809766643082824E-006
  0.27865000000000001         -1.5662576334492509E-006
  0.27949999999999997         -1.4567885119508147E-006
  0.28034999999999999         -1.3528689666249270E-006
  0.28120000000000001         -1.2548113481260602E-006
  0.28204999999999997         -1.1628940719002278E-006
  0.28289999999999998         -1.0773858554094579E-006
  0.28375000000000000         -9.9849838329975078E-007
  0.28459999999999996         -9.2640276865724772E-007
  0.28544999999999998         -8.6123300978853611E-007
  0.28630000000000000         -8.0304757323093958E-007
  0.28714999999999996         -7.5187086844388724E-007
  0.28799999999999998         -7.0769793677372632E-007
  0.28885000000000000         -6.7047834302532044E-007
  0.28969999999999996         -6.4012351018061227E-007
  0.29054999999999997         -6.1650445881324885E-007
  0.29139999999999999         -5.9945460066975339E-007
  0.29224999999999995         -5.8876789125196051E-007
  0.29309999999999997         -5.8417613815154531E-007
  0.29394999999999999         -5.8536044068709831E-007
  0.29480000000000001         -5.9193445557833583E-007
  0.29564999999999997         -6.0346361351541336E-007
  0.29649999999999999         -6.1944018321242212E-007
  0.29735000000000000         -6.3929637909706157E-007
  0.29819999999999997         -6.6244082944951698E-007
  0.29904999999999998         -6.8823044522219034E-007
  0.29990000000000000         -7.1599682922632322E-007
  0.30074999999999996         -7.4507771095817288E-007
  0.30159999999999998         -7.7478973732129560E-007
  0.30245000000000000         -8.0446876491232941E-007
  0.30329999999999996         -8.3346818885123863E-007
  0.30414999999999998         -8.6115341828572699E-007
  0.30499999999999999         -8.8692391456592279E-007
  0.30584999999999996         -9.1019652304376839E-007
  0.30669999999999997         -9.3042085646668537E-007
  0.30754999999999999         -9.4708468625568858E-007
  0.30840000000000001         -9.5970826555876446E-007
  0.30924999999999997         -9.6786153341844972E-007
  0.31009999999999999         -9.7115915753539013E-007
  0.31095000000000000         -9.6928459756855573E-007
  0.31179999999999997         -9.6199704936582024E-007
  0.31264999999999998         -9.4913448795170949E-007
  0.31350000000000000         -9.3061966523506213E-007
  0.31434999999999996         -9.0646792630268048E-007
  0.31519999999999998         -8.7678746831350974E-007
  0.31605000000000000         -8.4176691380295470E-007
  0.31689999999999996         -8.0168122413520738E-007
  0.31774999999999998         -7.5687888921243902E-007
  0.31859999999999999         -7.0776389704529247E-007
  0.31944999999999996         -6.5480598531610620E-007
  0.32029999999999997         -5.9850662158549093E-007
  0.32114999999999999         -5.3941806314210869E-007
  0.32199999999999995         -4.7812502202784849E-007
  0.32284999999999997         -4.1524077114402201E-007
  0.32369999999999999         -3.5140167944455189E-007
  0.32455000000000001         -2.8727307105330773E-007
  0.32539999999999997         -2.2353423364689449E-007
  0.32624999999999998         -1.6086988719364128E-007
  0.32710000000000000         -9.9961950766026431E-008
  0.32794999999999996         -4.1470350930684756E-008
  0.32879999999999998          1.3976500724702404E-008
  0.32965000000000000          6.5795396525337373E-008
  0.33049999999999996          1.1346388619936425E-007
  0.33134999999999998          1.5653308322235814E-007
  0.33220000000000000          1.9461962021663000E-007
  0.33304999999999996          2.2741917167937084E-007
  0.33389999999999997          2.5469616338951681E-007
  0.33474999999999999          2.7628055354352969E-007
  0.33559999999999995          2.9206369335520108E-007
  0.33644999999999997          3.0199169863726432E-007
  0.33729999999999999          3.0605540913485786E-007
  0.33815000000000001          3.0430088753667206E-007
  0.33899999999999997          2.9681443989064808E-007
  0.33984999999999999          2.8373814186089629E-007
  0.34070000000000000          2.6525862785418389E-007
  0.34154999999999996          2.4162206430870495E-007
  0.34239999999999998          2.1313019339242051E-007
  0.34325000000000000          1.8012918898097313E-007