 -0.12000000000000000          0.0000000000000000
 -0.11914999999999999          0.0000000000000000
 -0.11830000000000000          0.0000000000000000
 -0.11745000000000000          0.0000000000000000
 -0.11660000000000000          0.0000000000000000
 -0.11574999999999999          0.0000000000000000
 -0.11490000000000000          0.0000000000000000
 -0.11405000000000000          0.0000000000000000
 -0.11320000000000000          0.0000000000000000
 -0.11234999999999999          0.0000000000000000
 -0.11150000000000000          0.0000000000000000
 -0.11065000000000000          0.0000000000000000
 -0.10979999999999999          0.0000000000000000
 -0.10894999999999999          0.0000000000000000
 -0.10810000000000000          0.0000000000000000
 -0.10725000000000000          0.0000000000000000
 -0.10639999999999999          0.0000000000000000
 -0.10554999999999999          0.0000000000000000
 -0.10470000000000000          0.0000000000000000
 -0.10385000000000000          0.0000000000000000
 -0.10299999999999999          0.0000000000000000
 -0.10214999999999999          0.0000000000000000
 -0.10130000000000000          0.0000000000000000
 -0.10045000000000000          0.0000000000000000
  -9.9599999999999994E-002     0.0000000000000000
  -9.8750000000000004E-002     0.0000000000000000
  -9.7900000000000001E-002     0.0000000000000000
  -9.7049999999999997E-002    -1.3454840229412727E-061
  -9.6199999999999994E-002    -1.3454840229412727E-061
  -9.5349999999999990E-002     2.6909680458825454E-061
  -9.4500000000000001E-002     1.7491292298236545E-060
  -9.3649999999999997E-002     6.1151301145145851E-060
  -9.2799999999999994E-002     1.4026669198564675E-046
  -9.1950000000000004E-002    -2.4040365250043711E-060
  -9.1100000000000000E-002    -7.0133345992823508E-046
  -9.0249999999999997E-002    -2.2281462496594584E-045
  -8.9399999999999993E-002    -2.7275495794516485E-045
  -8.8549999999999990E-002     8.8431343768379499E-048
  -8.7700000000000000E-002     1.3831778337197341E-044
  -8.6849999999999997E-002     4.0746696497870158E-044
  -8.5999999999999993E-002     7.1493062043168460E-044
  -8.5150000000000003E-002     6.8752045529916568E-044
  -8.4300000000000000E-002    -4.1451606826930264E-044
  -8.3449999999999996E-002    -3.4046283122834122E-043
  -8.2600000000000007E-002    -8.3064876524781593E-043
  -8.1749999999999989E-002    -1.2641761196130017E-042
  -8.0900000000000000E-002    -9.8302785171230653E-043
  -8.0049999999999996E-002     1.0473343932740531E-042
  -7.9199999999999993E-002     5.6927612282896751E-042
  -7.8350000000000003E-002     1.2341463943007720E-041
  -7.7499999999999999E-002     1.7086483837836080E-041
  -7.6649999999999996E-002     1.1487401542030051E-041
  -7.5800000000000006E-002    -1.5792751597236590E-041
  -7.4949999999999989E-002    -7.1869646942953378E-041
  -7.4099999999999999E-002    -1.4605231193243162E-040
  -7.3249999999999996E-002    -1.9373046404571988E-040
  -7.2399999999999992E-002    -1.2948559309616644E-040
  -7.1550000000000002E-002     1.5166888584291498E-040
  -7.0699999999999999E-002     7.0651518317918253E-040
  -6.9849999999999995E-002     1.4282773964352275E-039
  -6.9000000000000006E-002     1.9219532037209809E-039
  -6.8149999999999988E-002     1.4629766950618214E-039
  -6.7299999999999999E-002    -8.2533280518238443E-040
  -6.6449999999999995E-002    -5.4558981961501001E-039
  -6.5599999999999992E-002    -1.1730107318127020E-038
  -6.4750000000000002E-002    -1.6824983698713155E-038
  -6.3899999999999998E-002    -1.5425997393060428E-038
  -6.3049999999999995E-002    -7.8167339209632021E-040
  -6.2199999999999998E-002     3.2025280814726288E-038
  -6.1350000000000002E-002     8.0517361008943936E-038
  -6.0499999999999998E-002     1.2840578783880579E-037
  -5.9650000000000002E-002     1.4180279057504553E-037
  -5.8799999999999998E-002     7.3318588920195614E-038
  -5.7950000000000002E-002    -1.2063026560920750E-037
  -5.7099999999999998E-002    -4.4726228516170128E-037
  -5.6249999999999994E-002    -8.3531932011913985E-037
  -5.5400000000000005E-002    -1.1006100290166595E-036
  -5.4550000000000001E-002    -9.4812490987328598E-037
  -5.3699999999999998E-002    -4.4619878388852259E-038
  -5.2849999999999994E-002     1.8152723085565452E-036
  -5.2000000000000005E-002     4.4608113734419239E-036
  -5.1150000000000001E-002     7.0851948962257338E-036
  -5.0299999999999997E-002     8.1152669178880154E-036
  -4.9449999999999994E-002     5.4050322006636846E-036
  -4.8600000000000004E-002    -3.0642031031199478E-036
  -4.7750000000000001E-002    -1.7918629389539107E-035
  -4.6899999999999997E-002    -3.6768038519575492E-035
  -4.6049999999999994E-002    -5.2807612218147128E-035
  -4.5200000000000004E-002    -5.4609424529216731E-035
  -4.4350000000000001E-002    -2.8244323067966842E-035
  -4.3499999999999997E-002     3.7413247018802307E-035
  -4.2649999999999993E-002     1.4232421544924241E-034
  -4.1800000000000004E-002     2.6570760967236096E-034
  -4.0950000000000000E-002     3.5922777937391295E-034
  -4.0099999999999997E-002     3.4872957273980537E-034
  -3.9249999999999993E-002     1.5058394544549584E-034
  -3.8400000000000004E-002    -2.9385800133372616E-034
  -3.7550000000000000E-002    -9.6850851689711686E-034
  -3.6699999999999997E-002    -1.7300410816171661E-033
  -3.5850000000000007E-002    -2.2762053536457986E-033
  -3.5000000000000003E-002    -2.1663693579829884E-033
  -3.4150000000000000E-002    -9.2432338972093823E-034
  -3.3299999999999996E-002     1.7632541642266303E-033
  -3.2450000000000007E-002     5.7742477000836261E-033
  -3.1600000000000003E-002     1.0276129873437177E-032
  -3.0750000000000000E-002     1.3572967537663577E-032
  -2.9899999999999996E-002     1.3232183509581147E-032
  -2.9050000000000006E-002     6.6346732236707438E-033
  -2.8200000000000003E-002    -7.9955043306264106E-033
  -2.7349999999999999E-002    -3.0196808257096763E-032
  -2.6499999999999996E-002    -5.5862275154757751E-032
  -2.5650000000000006E-002    -7.6411474678392733E-032
  -2.4800000000000003E-002    -7.9287066786711661E-032
  -2.3949999999999999E-002    -5.0460287710343648E-032
  -2.3099999999999996E-002     2.0750146505103277E-032
  -2.2250000000000006E-002     1.3498297097231869E-031
  -2.1400000000000002E-002     2.7573038049883958E-031
  -2.0549999999999999E-002     4.0437903999925780E-031
  -1.9699999999999995E-002     4.6070810450734228E-031
  -1.8850000000000006E-002     3.7210715233309208E-031
  -1.8000000000000002E-002     7.3474358436047891E-032
  -1.7149999999999999E-002    -4.6303306995909700E-031
  -1.6299999999999995E-002    -1.1933226484587551E-030
  -1.5450000000000005E-002    -1.9713691805174252E-030
  -1.4600000000000002E-002    -2.5374510007536463E-030
  -1.3749999999999998E-002    -2.5396570899464600E-030
  -1.2899999999999995E-002    -1.6009196072147787E-030
  -1.2050000000000005E-002     5.6451796710253278E-031
  -1.1200000000000002E-002     3.9953918090847049E-030
  -1.0349999999999998E-002     8.3170021930401427E-030
  -9.5000000000000084E-003     1.2611740009444901E-029
  -8.6500000000000049E-003     1.5388729066099741E-029
  -7.8000000000000014E-003     1.4718305446636607E-029
  -6.9499999999999978E-003     8.5832443007825623E-030
  -6.1000000000000082E-003    -4.5370049604611394E-030
  -5.2500000000000047E-003    -2.4891084682709541E-029
  -4.4000000000000011E-003    -5.0608030325631036E-029
  -3.5499999999999976E-003    -7.6979447406709264E-029
  -2.7000000000000079E-003    -9.6147698532827053E-029
  -1.8500000000000044E-003    -9.7516916381898074E-029
  -1.0000000000000009E-003    -6.9185256346613115E-029
  -1.4999999999999736E-004    -5.9343145113763220E-031
   6.9999999999999230E-004     1.1362321176982567E-028
   1.5499999999999958E-003     2.6891164537271470E-028
   2.3999999999999994E-003     4.4595716338991000E-028
   3.2500000000000029E-003     6.0693999949665456E-028
   4.0999999999999925E-003     6.9455549435448838E-028
   4.9499999999999961E-003     6.3574624879731368E-028
   5.7999999999999996E-003     3.5205086913680420E-028
   6.6499999999999893E-003    -2.2209041585516270E-028
   7.5000000000000067E-003    -1.1130124212360424E-027
   8.3499999999999963E-003    -2.2755324570092848E-027
   9.1999999999999860E-003    -3.5596544904183156E-027
   1.0050000000000003E-002    -4.6846822403773074E-027
   1.0899999999999993E-002    -5.2325319283061196E-027
   1.1750000000000010E-002    -4.6743420560598035E-027
   1.2600000000000000E-002    -2.4443772706970362E-027
   1.3449999999999990E-002     1.9288232102771454E-027
   1.4300000000000007E-002     8.6335183252502211E-027
   1.5149999999999997E-002     1.7343081242571850E-026
   1.5999999999999986E-002     2.6977802644556981E-026
   1.6850000000000004E-002     3.5520985701452489E-026
   1.7699999999999994E-002     3.9973112060525134E-026
   1.8549999999999983E-002     3.6542144485548519E-026
   1.9400000000000001E-002     2.1163981043200891E-026
   2.0249999999999990E-002    -9.5848091190405049E-027
   2.1100000000000008E-002    -5.7187857640349494E-026
   2.1949999999999997E-002    -1.1961616061111774E-025
   2.2799999999999987E-002    -1.8973373696312076E-025
   2.3650000000000004E-002    -2.5408742449008503E-025
   2.4499999999999994E-002    -2.9262138172577690E-025
   2.5349999999999984E-002    -2.7992685427797300E-025
   2.6200000000000001E-002    -1.8858788965552543E-025
   2.7049999999999991E-002     5.0385440728099500E-027
   2.7900000000000008E-002     3.1270150002780023E-025
   2.8749999999999998E-002     7.2453185365873947E-025
   2.9599999999999987E-002     1.1992594506315232E-024
   3.0450000000000005E-002     1.6567659513556005E-024
   3.1299999999999994E-002     1.9760736247249789E-024
   3.2149999999999984E-002     2.0021803806575594E-024
   3.3000000000000002E-002     1.5647884466085851E-024
   3.3849999999999991E-002     5.1068619601006871E-025
   3.4700000000000009E-002    -1.2508242392689101E-024
   3.5549999999999998E-002    -3.6934636500218462E-024
   3.6399999999999988E-002    -6.6186388387494723E-024
   3.7250000000000005E-002    -9.6116639757348194E-024
   3.8099999999999995E-002    -1.2025433149233988E-023
   3.8949999999999985E-002    -1.3008888233833336E-023
   3.9800000000000002E-002    -1.1595823567441256E-023
   4.0649999999999992E-002    -6.8633732268938662E-024
   4.1500000000000009E-002     1.8416478036286994E-024
   4.2349999999999999E-002     1.4626292309714036E-023
   4.3199999999999988E-002     3.0761942009243754E-023
   4.4050000000000006E-002     4.8438580417995942E-023
   4.4899999999999995E-002     6.4636206624157924E-023
   4.5749999999999985E-002     7.5194618443036850E-023
   4.6600000000000003E-002     7.5156829057792731E-023
   4.7449999999999992E-002     5.9436936246895366E-023
   4.8299999999999982E-002     2.3817569631794673E-023
   4.9149999999999999E-002    -3.3784156396199475E-023
   4.9999999999999989E-002    -1.1192470910712673E-022
   5.0850000000000006E-002    -2.0434518991728315E-022
   5.1699999999999996E-002    -2.9908983179038020E-022
   5.2549999999999986E-002    -3.7838189731068859E-022
   5.3400000000000003E-002    -4.1960029634531655E-022
   5.4249999999999993E-002    -3.9762411995161669E-022
   5.5099999999999982E-002    -2.8865209750474589E-022
   5.5950000000000000E-002    -7.5360389772896720E-023
   5.6799999999999989E-002     2.4705015518925290E-022
   5.7650000000000007E-002     6.6471347296860346E-022
   5.8499999999999996E-002     1.1399902575630060E-021
   5.9349999999999986E-002     1.6087594478597708E-021
   6.0200000000000004E-002     1.9815524891868170E-021
   6.1049999999999993E-002     2.1498130071265499E-021
   6.1899999999999983E-002     1.9981015479824546E-021
   6.2750000000000000E-002     1.4222916301292674E-021
   6.3599999999999990E-002     3.5273268690121678E-022
   6.4450000000000007E-002    -1.2199113211504953E-021
   6.5299999999999997E-002    -3.2197468484911225E-021
   6.6149999999999987E-002    -5.4663930130126964E-021
   6.7000000000000004E-002    -7.6668111261915968E-021
   6.7849999999999994E-002    -9.4236393862620505E-021
   6.8699999999999983E-002    -1.0264505576571234E-020
   6.9550000000000001E-002    -9.6947335462549235E-021
   7.0399999999999990E-002    -7.2727351806039480E-021
   7.1249999999999980E-002    -2.7032809205413007E-021
   7.2099999999999997E-002     4.0607427957415142E-021
   7.2949999999999987E-002     1.2722064717060684E-020
   7.3800000000000004E-002     2.2565933285739821E-020
   7.4649999999999994E-002     3.2429892905990508E-020
   7.5499999999999984E-002     4.0735620131151557E-020
   7.6350000000000001E-002     4.5598141760213251E-020
   7.7199999999999991E-002     4.5020327622772837E-020
   7.8049999999999981E-002     3.7169514854728315E-020
   7.8899999999999998E-002     2.0719163876149915E-020
   7.9749999999999988E-002    -4.7769555526894630E-021
   8.0600000000000005E-002    -3.8525672392208168E-020
   8.1449999999999995E-002    -7.8210222035540432E-020
   8.2299999999999984E-002    -1.1984733162702756E-019
   8.3150000000000002E-002    -1.5785060740511273E-019
   8.3999999999999991E-002    -1.8535327770005727E-019
   8.4849999999999981E-002    -1.9482043562858854E-019
   8.5699999999999998E-002    -1.7894677167045065E-019
   8.6549999999999988E-002    -1.3179269573849340E-019
   8.7400000000000005E-002    -5.0063486444059131E-020
   8.8249999999999995E-002     6.5611421026659357E-020
   8.9099999999999985E-002     2.0958205111058138E-019
   8.9950000000000002E-002     3.7047195262860154E-019
   9.0799999999999992E-002     5.3107239798342281E-019
   9.1649999999999981E-002     6.6901894587710622E-019
   9.2499999999999999E-002     7.5837278411850124E-019
   9.3349999999999989E-002     7.7213741773144167E-019
   9.4200000000000006E-002     6.8562060783670550E-019
   9.5049999999999996E-002     4.8041391748566793E-019
   9.5899999999999985E-002     1.4861939725453839E-019
   9.6750000000000003E-002    -3.0317405510104554E-019
   9.7599999999999992E-002    -8.5075522543238582E-019
   9.8449999999999982E-002    -1.4506232270369110E-018
   9.9299999999999999E-002    -2.0403806697101489E-018
  0.10014999999999999         -2.5416554089148492E-018
  0.10099999999999998         -2.8658120511760698E-018
  0.10185000000000000         -2.9224183435898807E-018
  0.10269999999999999         -2.6300784910215831E-018
  0.10355000000000000         -1.9288599642062130E-018
  0.10439999999999999         -7.9315928732170267E-019
  0.10524999999999998          7.5645978717374693E-019
  0.10610000000000000          2.6441320993184314E-018
  0.10694999999999999          4.7339847795528909E-018
  0.10779999999999998          6.8314326754455912E-018
  0.10865000000000000          8.6916867133080806E-018
  0.10949999999999999          1.0036095725976127E-017
  0.11035000000000000          1.0576171459073773E-017
  0.11119999999999999          1.0044226292431981E-017
  0.11204999999999998          8.2285851269883609E-018
  0.11290000000000000          5.0103982188775002E-018
  0.11374999999999999          3.9830318536891303E-019
  0.11459999999999998         -5.4433285718342319E-018
  0.11545000000000000         -1.2176957217096159E-017
  0.11629999999999999         -1.9289343014165199E-017
  0.11715000000000000         -2.6107197894523923E-017
  0.11799999999999999         -3.1833010668288253E-017
  0.11884999999999998         -3.5601295608743718E-017
  0.11970000000000000         -3.6553473820329089E-017
  0.12054999999999999         -3.3927353802040389E-017
  0.12139999999999998         -2.7155033330466977E-017
  0.12225000000000000         -1.5961057976027663E-017
  0.12309999999999999         -4.5128791793720883E-019
  0.12395000000000000          1.8817867579282815E-017
  0.12479999999999999          4.0800084261947877E-017
  0.12564999999999998          6.3958761496802785E-017
  0.12650000000000000          8.6312734164147382E-017
  0.12734999999999999          1.0553209250951772E-016
  0.12819999999999998          1.1908435617673948E-016
  0.12905000000000000          1.2442677153020334E-016
  0.12989999999999999          1.1923583923394445E-016
  0.13074999999999998          1.0166068849819986E-016
  0.13159999999999999          7.0582467239321251E-017
  0.13245000000000001          2.5859000155457115E-017
  0.13329999999999997         -3.1468557316136224E-017
  0.13414999999999999         -9.9030665030190392E-017
  0.13500000000000001         -1.7306866022402401E-016
  0.13584999999999997         -2.4847800993218430E-016
  0.13669999999999999         -3.1897037284652349E-016
  0.13755000000000001         -3.7736275872485967E-016
  0.13839999999999997         -4.1599385486918421E-016
  0.13924999999999998         -4.2725810760200584E-016
  0.14010000000000000         -4.0423751751788643E-016
  0.14094999999999996         -3.4140092212245104E-016
  0.14179999999999998         -2.3533003993543732E-016
  0.14265000000000000         -8.5421931169473893E-017
  0.14350000000000002          1.0548945289679370E-016
  0.14434999999999998          3.3065508612883612E-016
  0.14520000000000000          5.7913963223792911E-016
  0.14605000000000001          8.3581851681975786E-016
  0.14689999999999998          1.0816956407183807E-015
  0.14774999999999999          1.2945828446817379E-015
  0.14860000000000001          1.4501617799982201E-015
  0.14944999999999997          1.5234259268830145E-015
  0.15029999999999999          1.4904718514632129E-015
  0.15115000000000001          1.3305757691218458E-015
  0.15199999999999997          1.0284566234535238E-015
  0.15284999999999999          5.7659488348648208E-016
  0.15370000000000000         -2.2557301339315271E-017
  0.15454999999999997         -7.5466425989272975E-016
  0.15539999999999998         -1.5920971444155386E-015
  0.15625000000000000         -2.4932365663816071E-015
  0.15709999999999996         -3.4026864227554489E-015
  0.15794999999999998         -4.2525651436786790E-015
  0.15880000000000000         -4.9650005182434749E-015
  0.15965000000000001         -5.4558821156801782E-015
  0.16049999999999998         -5.6398423567081025E-015
  0.16134999999999999         -5.4363480733220562E-015
  0.16220000000000001         -4.7766665612258695E-015
  0.16304999999999997         -3.6113694454770410E-015
  0.16389999999999999         -1.9179286706458213E-015
  0.16475000000000001          2.9212609956488463E-016
  0.16559999999999997          2.9670984547405041E-015
  0.16644999999999999          6.0106981993379003E-015
  0.16730000000000000          9.2799374568289570E-015
  0.16814999999999997          1.2585938524023605E-014
  0.16899999999999998          1.5698145708623015E-014
  0.16985000000000000          1.8352286362779066E-014
  0.17069999999999996          2.0262221165541594E-014
  0.17154999999999998          2.1135591737114070E-014
  0.17240000000000000          2.0692894242894499E-014
  0.17325000000000002          1.8689308404197231E-014
  0.17409999999999998          1.4938330435280325E-014
  0.17494999999999999          9.3359220498457462E-015
  0.17580000000000001          1.8837053559555504E-015
  0.17664999999999997         -7.2905361452303602E-015
  0.17749999999999999         -1.7916861590539072E-014
  0.17835000000000001         -2.9573541548321034E-014
  0.17919999999999997         -4.1685565458472926E-014
  0.18004999999999999         -5.3532861166131143E-014
  0.18090000000000001         -6.4269419637931516E-014
  0.18174999999999997         -7.2954089862991285E-014
  0.18259999999999998         -7.8593205473818959E-014
  0.18345000000000000         -8.0194487132844167E-014
  0.18429999999999996         -7.6830835265953783E-014
  0.18514999999999998         -6.7711862522379642E-014
  0.18600000000000000         -5.2260091979082266E-014
  0.18684999999999996         -3.0187981358329413E-014
  0.18769999999999998         -1.5711686728910791E-015
  0.18855000000000000          3.3087241926372449E-014
  0.18940000000000001          7.2806822037275166E-014
  0.19024999999999997          1.1610001819221164E-013
  0.19109999999999999          1.6096783760746796E-013
  0.19195000000000001          2.0492571423188297E-013
  0.19279999999999997          2.4506345649005857E-013
  0.19364999999999999          2.7814172756550420E-013
  0.19450000000000001          3.0072565408298989E-013
  0.19534999999999997          3.0935451778608258E-013
  0.19619999999999999          3.0074346389663880E-013
  0.19705000000000000          2.7201126485910309E-013
  0.19789999999999996          2.2092543771008872E-013
  0.19874999999999998          1.4615327932069080E-013
  0.19960000000000000          4.7505623845699372E-014
  0.20044999999999996         -7.3842078829166014E-014
  0.20129999999999998         -2.1516779225396603E-013
  0.20215000000000000         -3.7207699358495454E-013
  0.20300000000000001         -5.3844950171826316E-013
  0.20384999999999998         -7.0647417626946577E-013
  0.20469999999999999         -8.6678462422757145E-013
  0.20555000000000001         -1.0087048491341399E-012
  0.20639999999999997         -1.1206101737314498E-012
  0.20724999999999999         -1.1904021652520070E-012
  0.20810000000000001         -1.2060916473462328E-012
  0.20894999999999997         -1.1564748199629907E-012
  0.20979999999999999         -1.0318829108939395E-012
  0.21065000000000000         -8.2497631037478860E-013
  0.21149999999999997         -5.3154972885161308E-013
  0.21234999999999998         -1.5130645502603945E-013
  0.21320000000000000          3.1144220203979426E-013
  0.21404999999999996          8.4720126712369162E-013
  0.21489999999999998          1.4408894267442648E-012
  0.21575000000000000          2.0716566013841694E-012
  0.21659999999999996          2.7129669749501193E-012
  0.21744999999999998          3.3329840938137058E-012
  0.21829999999999999          3.8952850632038395E-012
  0.21915000000000001          4.3599235798208945E-012
  0.21999999999999997          4.6848363193913523E-012
  0.22084999999999999          4.8275829204207063E-012
  0.22170000000000001          4.7473807418753762E-012
  0.22254999999999997          4.4073832780837415E-012
  0.22339999999999999          3.7771303781975538E-012
  0.22425000000000000          2.8350712522939417E-012
  0.22509999999999997          1.5710592790003753E-012
  0.22594999999999998         -1.1309703497954234E-014
  0.22680000000000000         -1.8926494088949495E-012
  0.22764999999999996         -4.0361623849801459E-012
  0.22849999999999998         -6.3865901525651140E-012
  0.22935000000000000         -8.8698635462902932E-012
  0.23019999999999996         -1.1393575410730633E-011
  0.23104999999999998         -1.3848377897583019E-011
  0.23190000000000000         -1.6110364024919591E-011
  0.23275000000000001         -1.8044496576557628E-011
  0.23359999999999997         -1.9509048550349488E-011
  0.23444999999999999         -2.0361045925888088E-011
  0.23530000000000001         -2.0462583759413952E-011
  0.23614999999999997         -1.9687889696397776E-011
  0.23699999999999999         -1.7930932862173918E-011
  0.23785000000000001         -1.5113344593078742E-011
  0.23869999999999997         -1.1192340504356979E-011
  0.23954999999999999         -6.1683557816623338E-012
  0.24040000000000000         -9.2015139255078193E-014
  0.24124999999999996          6.9299134691944013E-012
  0.24209999999999998          1.4729957236858924E-011
  0.24295000000000000          2.3077122709462060E-011
  0.24379999999999996          3.1676165831119954E-011
  0.24464999999999998          4.0169247201634386E-011
  0.24550000000000000          4.8140193786190262E-011
  0.24634999999999996          5.5121560722871187E-011
  0.24719999999999998          6.0604585246266176E-011
  0.24804999999999999          6.4052008912028803E-011
  0.24890000000000001          6.4913724927396183E-011
  0.24974999999999997          6.2645021186735958E-011
  0.25059999999999999          5.6727130487043788E-011
  0.25145000000000001          4.6689771735784347E-011
  0.25229999999999997          3.2135171051613488E-011
  0.25314999999999999          1.2763083342922293E-011
  0.25400000000000000         -1.1603753763080877E-011
  0.25484999999999997         -4.0994282506427703E-011
  0.25569999999999998         -7.5264473766113006E-011
  0.25655000000000000         -1.1407387771262550E-010
  0.25739999999999996         -1.5686376116562879E-010
  0.25824999999999998         -2.0283723175377914E-010
  0.25910000000000000         -2.5094138262923722E-010
  0.25994999999999996         -2.9985150687766177E-010
  0.26079999999999998         -3.4795724336036015E-010
  0.26164999999999999         -3.9334966079399767E-010
  0.26249999999999996         -4.3380936977942749E-010
  0.26334999999999997         -4.6679342272370096E-010
  0.26419999999999999         -4.8942066463470765E-010
  0.26505000000000001         -4.9845295140284319E-010
  0.26589999999999997         -4.9027071798738345E-010
  0.26674999999999999         -4.6084016169393533E-010
  0.26760000000000000         -4.0566934648207582E-010
  0.26844999999999997         -3.1974985683526101E-010
  0.26929999999999998         -1.9748130225849424E-010
  0.27015000000000000         -3.2574279061266494E-011
  0.27099999999999996          1.8207192423243783E-010
  0.27184999999999998          4.5452096368277299E-010
  0.27270000000000000          7.9398528447565853E-010
  0.27354999999999996          1.2110504514068525E-009
  0.27439999999999998          1.7179434314702965E-009
  0.27524999999999999          2.3288499656421135E-009
  0.27609999999999996          3.0602867526163249E-009
  0.27694999999999997          3.9315335923752454E-009
  0.27779999999999999          4.9651332615613103E-009
  0.27865000000000001          6.1874623489991648E-009
  0.27949999999999997          7.6293840918786415E-009
  0.28034999999999999          9.3269895674397521E-009
  0.28120000000000001          1.1322429382833211E-008
  0.28204999999999997          1.3664858569700228E-008
  0.28289999999999998          1.6411486697608097E-008
  0.28375000000000000          1.9628755138805183E-008
  0.28459999999999996          2.3393649900886377E-008
  0.28544999999999998          2.7795153857408073E-008
  0.28630000000000000          3.2935866672142165E-008
  0.28714999999999996          3.8933786284928067E-008
  0.28799999999999998          4.5924278007527262E-008
  0.28885000000000000          5.4062241577775697E-008
  0.28969999999999996          6.3524485537122987E-008
  0.29054999999999997          7.4512329008708982E-008
  0.29139999999999999          8.7254450094769076E-008
  0.29224999999999995          1.0200997210127667E-007
  0.29309999999999997          1.1907182236733594E-007
  0.29394999999999999          1.3877034857377176E-007
  0.29480000000000001          1.6147722125039347E-007
  0.29564999999999997          1.8760966911292962E-007
  0.29649999999999999          2.1763484622533244E-007
  0.29735000000000000          2.5207470037347446E-007
  0.29819999999999997          2.9151091097229399E-007
  0.29904999999999998          3.3659012984099050E-007
  0.29990000000000000          3.8802948370867487E-007
  0.30074999999999996          4.4662222985141788E-007
  0.30159999999999998          5.1324355768830230E-007
  0.30245000000000000          5.8885650123850188E-007
  0.30329999999999996          6.7451772310294678E-007
  0.30414999999999998          7.7138344979000141E-007
  0.30499999999999999          8.8071516688244364E-007
  0.30584999999999996          1.0038849625063973E-006
  0.30669999999999997          1.1423805023435268E-006
  0.30754999999999999          1.2978097884674593E-006
  0.30840000000000001          1.4719045846976372E-006
  0.30924999999999997          1.6665235610898785E-006
  0.31009999999999999          1.8836541301489504E-006
  0.31095000000000000          2.1254128985959787E-006
  0.31179999999999997          2.3940453863823549E-006
  0.31264999999999998          2.6919231515855291E-006
  0.31350000000000000          3.0215398239135271E-006
  0.31434999999999996          3.3855044015273701E-006
  0.31519999999999998          3.7865320398780889E-006
  0.31605000000000000          4.2274328964717307E-006
  0.31689999999999996          4.7110980826337171E-006
  0.31774999999999998          5.2404819635259337E-006
  0.31859999999999999          5.8185809922880998E-006
  0.31944999999999996          6.4484106370464237E-006
  0.32029999999999997          7.1329773791275262E-006
  0.32114999999999999          7.8752454021168691E-006
  0.32199999999999995          8.6781034955754560E-006
  0.32284999999999997          9.5443216999459099E-006
  0.32369999999999999          1.0476512969518555E-005
  0.32455000000000001          1.1477082007557734E-005
  0.32539999999999997          1.2548173919825894E-005
  0.32624999999999998          1.3691622357748273E-005
  0.32710000000000000          1.4908887140875360E-005
  0.32794999999999996          1.6200997685643672E-005
  0.32879999999999998          1.7568482821671727E-005
  0.32965000000000000          1.9011311487730365E-005
  0.33049999999999996          2.0528817921591388E-005
  0.33134999999999998          2.2119638366583003E-005
  0.33220000000000000          2.3781640772570666E-005
  0.33304999999999996          2.5511854292885731E-005
  0.33389999999999997          2.7306408779781257E-005
  0.33474999999999999          2.9160465421182926E-005
  0.33559999999999995          3.1068161835490736E-005
  0.33644999999999997          3.3022558273266554E-005
  0.33729999999999999          3.5015584046967875E-005
  0.33815000000000001          3.7037997697679922E-005
  0.33899999999999997          3.9079365478509093E-005
  0.33984999999999999          4.1128030816128881E-005
  0.34070000000000000          4.3171108103179962E-005
  0.34154999999999996          4.5194484181178225E-005
  0.34239999999999998          4.7182837606396633E-005
  0.34325000000000000          4.9119668820021266E-005
  0.34409999999999996          5.0987340679581352E-005