 -0.12000000000000000          0.0000000000000000
 -0.11914999999999999          0.0000000000000000
 -0.11830000000000000          0.0000000000000000
 -0.11745000000000000          0.0000000000000000
 -0.11660000000000000          0.0000000000000000
 -0.11574999999999999          0.0000000000000000
 -0.11490000000000000          0.0000000000000000
 -0.11405000000000000          0.0000000000000000
 -0.11320000000000000          4.1763374837429585E-033
 -0.11234999999999999          6.3032320506510435E-032
 -0.11150000000000000          4.9419473041815959E-031
 -0.11065000000000000          2.6701366660293020E-030
 -0.10979999999999999          1.1124670866062562E-029
 -0.10894999999999999          3.7895378174647566E-029
 -0.10810000000000000          1.0916200895283834E-028
 -0.10725000000000000          2.7103336715215011E-028
 -0.10639999999999999          5.8455406733958909E-028
 -0.10554999999999999          1.0900745775976510E-027
 -0.10470000000000000          1.7124994325131063E-027
 -0.10385000000000000          2.0822934369382330E-027
 -0.10299999999999999          1.2794032549473418E-027
 -0.10214999999999999         -2.4135824246129758E-027
 -0.10130000000000000         -1.1530304662353476E-026
 -0.10045000000000000         -2.8832382024390080E-026
  -9.9599999999999994E-002    -5.5624554688187047E-026
  -9.8750000000000004E-002    -8.8565280960779010E-026
  -9.7900000000000001E-002    -1.1502268321770717E-025
  -9.7049999999999997E-002    -1.0802111051356333E-025
  -9.6199999999999994E-002    -2.3368892068593785E-026
  -9.5349999999999990E-002     1.9664298382666871E-025
  -9.4500000000000001E-002     6.0727922049007618E-025
  -9.3649999999999997E-002     1.2278672735483373E-024
  -9.2799999999999994E-002     1.9891757385372503E-024
  -9.1950000000000004E-002     2.6682645807552577E-024
  -9.1100000000000000E-002     2.8303325786960082E-024
  -9.0249999999999997E-002     1.8128322728604541E-024
  -8.9399999999999993E-002    -1.1992512902451458E-024
  -8.8549999999999990E-002    -6.9546170837340308E-024
  -8.7700000000000000E-002    -1.5737913721683773E-023
  -8.6849999999999997E-002    -2.6804368624689720E-023
  -8.5999999999999993E-002    -3.7738621842580569E-023
  -8.5150000000000003E-002    -4.3937294799133921E-023
  -8.4300000000000000E-002    -3.8526542718180104E-023
  -8.3449999999999996E-002    -1.3100827710198517E-023
  -8.2600000000000007E-002     4.0348863141820038E-023
  -8.1749999999999989E-002     1.2611831804169933E-022
  -8.0900000000000000E-002     2.4025007998535178E-022
  -8.0049999999999996E-002     3.6549359190451976E-022
  -7.9199999999999993E-002     4.6717332472454753E-022
  -7.8350000000000003E-002     4.9203064541032130E-022
  -7.7499999999999999E-002     3.7248726039208704E-022
  -7.6649999999999996E-002     3.8602487202617184E-023
  -7.5800000000000006E-002    -5.6103632326283672E-022
  -7.4949999999999989E-002    -1.4303077740903875E-021
  -7.4099999999999999E-002    -2.4922924476701020E-021
  -7.3249999999999996E-002    -3.5592543853532845E-021
  -7.2399999999999992E-002    -4.3168686253542202E-021
  -7.1550000000000002E-002    -4.3359178509050107E-021
  -7.0699999999999999E-002    -3.1242876548069167E-021
  -6.9849999999999995E-002    -2.2784304585297301E-022
  -6.9000000000000006E-002     4.6201850101066209E-021
  -6.8149999999999988E-002     1.1315240910940218E-020
  -6.7299999999999999E-002     1.9193616605241979E-020
  -6.6449999999999995E-002     2.6888623828316704E-020
  -6.5599999999999992E-002     3.2291715516913151E-020
  -6.4750000000000002E-002     3.2683367129999830E-020
  -6.3899999999999998E-002     2.5087670397626160E-020
  -6.3049999999999995E-002     6.8751669979752663E-021
  -6.2199999999999998E-002    -2.3410796934731046E-020
  -6.1350000000000002E-002    -6.5094856368408520E-020
  -6.0499999999999998E-002    -1.1444224622821337E-019
  -5.9650000000000002E-002    -1.6399613138187347E-019
  -5.8799999999999998E-002    -2.0245648537954042E-019
  -5.7950000000000002E-002    -2.1537702884318273E-019
  -5.7099999999999998E-002    -1.8689364274896506E-019
  -5.6249999999999994E-002    -1.0256102450135007E-019
  -5.5400000000000005E-002     4.6835931802144764E-020
  -5.4550000000000001E-002     2.6089593487094347E-019
  -5.3699999999999998E-002     5.2532714373583097E-019
  -5.2849999999999994E-002     8.0872916949376054E-019
  -5.2000000000000005E-002     1.0615331789967323E-018
  -5.1150000000000001E-002     1.2181999635255132E-018
  -5.0299999999999997E-002     1.2035425896950922E-018
  -4.9449999999999994E-002     9.4355798095180831E-019
  -4.8600000000000004E-002     3.8041075644938218E-019
  -4.7750000000000001E-002    -5.0972420085324134E-019
  -4.6899999999999997E-002    -1.6982746245842677E-018
  -4.6049999999999994E-002    -3.0885962507430548E-018
  -4.5200000000000004E-002    -4.5069298897710269E-018
  -4.4350000000000001E-002    -5.7040833066240510E-018
  -4.3499999999999997E-002    -6.3714178563739712E-018
  -4.2649999999999993E-002    -6.1733977894790607E-018
  -4.1800000000000004E-002    -4.7968291125773755E-018
  -4.0950000000000000E-002    -2.0140239664340768E-018
  -4.0099999999999997E-002     2.2461477138441097E-018
  -3.9249999999999993E-002     7.8287238034629950E-018
  -3.8400000000000004E-002     1.4296832794532562E-017
  -3.7550000000000000E-002     2.0903486774506753E-017
  -3.6699999999999997E-002     2.6604827865185062E-017
  -3.5850000000000007E-002     3.0126348298989202E-017
  -3.5000000000000003E-002     3.0088781450217270E-017
  -3.4150000000000000E-002     2.5193004673816213E-017
  -3.3299999999999996E-002     1.4453729050095233E-017
  -3.2450000000000007E-002    -2.5388595806217896E-018
  -3.1600000000000003E-002    -2.5361309610608824E-017
  -3.0750000000000000E-002    -5.2543790388182047E-017
  -2.9899999999999996E-002    -8.1448252929877243E-017
  -2.9050000000000006E-002    -1.0828474560327676E-016
  -2.8200000000000003E-002    -1.2830630520186707E-016
  -2.7349999999999999E-002    -1.3620819809425011E-016
  -2.6499999999999996E-002    -1.2673453285813801E-016
  -2.5650000000000006E-002    -9.5465860106414311E-017
  -2.4800000000000003E-002    -3.9726438213405701E-017
  -2.3949999999999999E-002     4.0485076739167561E-017
  -2.3099999999999996E-002     1.4166958213930542E-016
  -2.2250000000000006E-002     2.5625567757819291E-016
  -2.1400000000000002E-002     3.7243731700654722E-016
  -2.0549999999999999E-002     4.7456142655186552E-016
  -1.9699999999999995E-002     5.4416697686321380E-016
  -1.8850000000000006E-002     5.6171141947642547E-016
  -1.8000000000000002E-002     5.0893459829828112E-016
  -1.7149999999999999E-002     3.7170583834042395E-016
  -1.6299999999999995E-002     1.4309380949921493E-016
  -1.5450000000000005E-002    -1.7370203080952664E-016
  -1.4600000000000002E-002    -5.6298974107665506E-016
  -1.3749999999999998E-002    -9.9525825174242970E-016
  -1.2899999999999995E-002    -1.4273227217927422E-015
  -1.2050000000000005E-002    -1.8042880949204275E-015
  -1.1200000000000002E-002    -2.0635186664878779E-015
  -1.0349999999999998E-002    -2.1405750700318525E-015
  -9.5000000000000084E-003    -1.9768231260142131E-015
  -8.6500000000000049E-003    -1.5281238670197101E-015
  -7.8000000000000014E-003    -7.7376162034737527E-016
  -6.9499999999999978E-003     2.7545638168382903E-016
  -6.1000000000000082E-003     1.5711020717018063E-015
  -5.2500000000000047E-003     3.0241958586142570E-015
  -4.4000000000000011E-003     4.5064475073686355E-015
  -3.5499999999999976E-003     5.8563549966519959E-015
  -2.7000000000000079E-003     6.8903975764787732E-015
  -1.8500000000000044E-003     7.4189829997981383E-015
  -1.0000000000000009E-003     7.2662129152980865E-015
  -1.4999999999999736E-004     6.2919099936473600E-015
   6.9999999999999230E-004     4.4138588960992955E-015
   1.5499999999999958E-003     1.6278613645095213E-015
   2.3999999999999994E-003    -1.9769050485786337E-015
   3.2500000000000029E-003    -6.2095768711991112E-015
   4.0999999999999925E-003    -1.0778268559195884E-014
   4.9499999999999961E-003    -1.5300928883227080E-014
   5.7999999999999996E-003    -1.9326717909336632E-014
   6.6499999999999893E-003    -2.2367209632329020E-014
   7.5000000000000067E-003    -2.3935696102715413E-014
   8.3499999999999963E-003    -2.3591938346274907E-014
   9.1999999999999860E-003    -2.0988955356661988E-014
   1.0050000000000003E-002    -1.5918043484643540E-014
   1.0899999999999993E-002    -8.3480369353135182E-015
   1.1750000000000010E-002     1.5448824587671214E-015
   1.2600000000000000E-002     1.3360026960687152E-014
   1.3449999999999990E-002     2.6470066858026984E-014
   1.4300000000000007E-002     4.0035406027674849E-014
   1.5149999999999997E-002     5.3035471993724127E-014
   1.5999999999999986E-002     6.4316487418877169E-014
   1.6850000000000004E-002     7.2654259146616812E-014
   1.7699999999999994E-002     7.6829869249387878E-014
   1.8549999999999983E-002     7.5715606107204393E-014
   1.9400000000000001E-002     6.8367538682555832E-014
   2.0249999999999990E-002     5.4121013676630252E-014
   2.1100000000000008E-002     3.2684443317229174E-014
   2.1949999999999997E-002     4.2260552571159190E-015
   2.2799999999999987E-002    -3.0552344621710677E-014
   2.3650000000000004E-002    -7.0361485705494760E-014
   2.4499999999999994E-002    -1.1329796490752396E-013
   2.5349999999999984E-002    -1.5685257807900207E-013
   2.6200000000000001E-002    -1.9796095502450183E-013
   2.7049999999999991E-002    -2.3310302179788541E-013
   2.7900000000000008E-002    -2.5845551001235112E-013
   2.8749999999999998E-002    -2.7009900895926406E-013
   2.9599999999999987E-002    -2.6427693209441944E-013
   3.0450000000000005E-002    -2.3769867206507072E-013
   3.1299999999999994E-002    -1.8787417589430394E-013
   3.2149999999999984E-002    -1.1346172649956218E-013
   3.3000000000000002E-002    -1.4604846905763292E-014
   3.3849999999999991E-002     1.0676904202297240E-013
   3.4700000000000009E-002     2.4671892063372463E-013
   3.5549999999999998E-002     3.9916008924276402E-013
   3.6399999999999988E-002     5.5586381116426901E-013
   3.7250000000000005E-002     7.0661117916613749E-013
   3.8099999999999995E-002     8.3951886106205343E-013
   3.8949999999999985E-002     9.4154629804899562E-013
   3.9800000000000002E-002     9.9917933490514493E-013
   4.0649999999999992E-002     9.9927590877289140E-013
   4.1500000000000009E-002     9.3004132601917729E-013
   4.2349999999999999E-002     7.8208905860604597E-013
   4.3199999999999988E-002     5.4953063045381457E-013
   4.4050000000000006E-002     2.3102464505035045E-013
   4.4899999999999995E-002    -1.6929044195757136E-013
   4.5749999999999985E-002    -6.4106095541313257E-013
   4.6600000000000003E-002    -1.1672586632172745E-012
   4.7449999999999992E-002    -1.7240724861429415E-012
   4.8299999999999982E-002    -2.2812143315766790E-012
   4.9149999999999999E-002    -2.8026845636579197E-012
   4.9999999999999989E-002    -3.2480236054841454E-012
   5.0850000000000006E-002    -3.5740496688866142E-012
   5.1699999999999996E-002    -3.7370526889372748E-012
   5.2549999999999986E-002    -3.6953806487104253E-012
   5.3400000000000003E-002    -3.4123356570333999E-012
   5.4249999999999993E-002    -2.8592463120790699E-012
   5.5099999999999982E-002    -2.0185717727406343E-012
   5.5950000000000000E-002    -8.8686378832434050E-013
   5.6799999999999989E-002     5.2260950507932491E-013
   5.7650000000000007E-002     2.1777697616244121E-012
   5.8499999999999996E-002     4.0263724211567881E-012
   5.9349999999999986E-002     5.9955730470345565E-012
   6.0200000000000004E-002     7.9925742248889576E-012
   6.1049999999999993E-002     9.9064975044402833E-012
   6.1899999999999983E-002     1.1611543429003558E-011
   6.2750000000000000E-002     1.2971493594020034E-011
   6.3599999999999990E-002     1.3845483995973438E-011
   6.4450000000000007E-002     1.4094960678866276E-011
   6.5299999999999997E-002     1.3591619108000891E-011
   6.6149999999999987E-002     1.2226055163073727E-011
   6.7000000000000004E-002     9.9167987549029063E-012
   6.7849999999999994E-002     6.6192952405506489E-012
   6.8699999999999983E-002     2.3344006506644508E-012
   6.9550000000000001E-002    -2.8841562528033389E-012
   7.0399999999999990E-002    -8.9238528998302158E-012
   7.1249999999999980E-002    -1.5609538348774107E-011
   7.2099999999999997E-002    -2.2702200737916328E-011
   7.2949999999999987E-002    -2.9900777521348777E-011
   7.3800000000000004E-002    -3.6847385254836676E-011
   7.4649999999999994E-002    -4.3136224216258814E-011
   7.5499999999999984E-002    -4.8326293750717279E-011
   7.6350000000000001E-002    -5.1957806099286457E-011
   7.7199999999999991E-002    -5.3572038885770380E-011
   7.8049999999999981E-002    -5.2734249727087214E-011
   7.8899999999999998E-002    -4.9058856860918539E-011
   7.9749999999999988E-002    -4.2236084256121693E-011
   8.0600000000000005E-002    -3.2058920347147276E-011
   8.1449999999999995E-002    -1.8449203573952393E-011
   8.2299999999999984E-002    -1.4814934854540832E-012
   8.3150000000000002E-002     1.8596765750688451E-011
   8.3999999999999991E-002     4.1350134493000102E-011
   8.4849999999999981E-002     6.6146477762852147E-011
   8.5699999999999998E-002     9.2156000618590128E-011
   8.6549999999999988E-002     1.1835878235676680E-010
   8.7400000000000005E-002     1.4356184238177966E-010
   8.8249999999999995E-002     1.6642585996073723E-010
   8.9099999999999985E-002     1.8550167905330985E-010
   8.9950000000000002E-002     1.9927619825896704E-010
   9.0799999999999992E-002     2.0622672438734978E-010
   9.1649999999999981E-002     2.0488245138116236E-010
   9.2499999999999999E-002     1.9389134316905697E-010
   9.3349999999999989E-002     1.7209001176774816E-010
   9.4200000000000006E-002     1.3857419022659320E-010
   9.5049999999999996E-002     9.2766742612260154E-011
   9.5899999999999985E-002     3.4479879242082227E-011
   9.6750000000000003E-002    -3.6031496309622073E-011
   9.7599999999999992E-002    -1.1802936539235414E-010
   9.8449999999999982E-002    -2.1026787307567255E-010
   9.9299999999999999E-002    -3.1098771743803135E-010
  0.10014999999999999         -4.1793259370207669E-010
  0.10099999999999998         -5.2838991948410154E-010
  0.10185000000000000         -6.3925706369776437E-010
  0.10269999999999999         -7.4713519583681258E-010
  0.10355000000000000         -8.4844897639883726E-010
  0.10439999999999999         -9.3959272433853934E-010
  0.10524999999999998         -1.0171006008713236E-009
  0.10610000000000000         -1.0778367013087985E-009
  0.10694999999999999         -1.1192045273613813E-009
  0.10779999999999998         -1.1393670604821598E-009
  0.10865000000000000         -1.1374753726240737E-009
  0.10949999999999999         -1.1138976060629294E-009
  0.11035000000000000         -1.0704441949880955E-009
  0.11119999999999999         -1.0105850054136797E-009
  0.11204999999999998         -9.3964923330959910E-010
  0.11290000000000000         -8.6500696069811003E-010
  0.11374999999999999         -7.9622507774247703E-010
  0.11459999999999998         -7.4520351924308066E-010
  0.11545000000000000         -7.2627952786278261E-010
  0.11629999999999999         -7.5631172187348753E-010
  0.11715000000000000         -8.5474652035211515E-010
  0.11799999999999999         -1.0436641684440919E-009
  0.11884999999999998         -1.3478159561969174E-009
  0.11970000000000000         -1.7946769166655640E-009
  0.12054999999999999         -2.4145022176439425E-009
  0.12139999999999998         -3.2404072042044200E-009
  0.12225000000000000         -4.3085190512501400E-009
  0.12309999999999999         -5.6581408027805837E-009
  0.12395000000000000         -7.3320378277627361E-009
  0.12479999999999999         -9.3767993445625679E-009
  0.12564999999999998         -1.1843357161876452E-008
  0.12650000000000000         -1.4787532308516112E-008
  0.12734999999999999         -1.8270869430781412E-008
  0.12819999999999998         -2.2361581003602286E-008
  0.12905000000000000         -2.7135642507325557E-008
  0.12989999999999999         -3.2678269501331617E-008
  0.13074999999999998         -3.9085421008496463E-008
  0.13159999999999999         -4.6465663697883735E-008
  0.13245000000000001         -5.4942399885677894E-008
  0.13329999999999997         -6.4656059042041669E-008
  0.13414999999999999         -7.5767136770389062E-008
  0.13500000000000001         -8.8458964371947546E-008
  0.13584999999999997         -1.0294144723466869E-007
  0.13669999999999999         -1.1945451256381325E-007
  0.13755000000000001         -1.3827281444505575E-007
  0.13839999999999997         -1.5970993504087333E-007
  0.13924999999999998         -1.8412420069541315E-007
  0.14010000000000000         -2.1192417933764136E-007
  0.14094999999999996         -2.4357522675786553E-007
  0.14179999999999998         -2.7960619884514292E-007
  0.14265000000000000         -3.2061793162885058E-007
  0.14350000000000002         -3.6729174522532864E-007
  0.14434999999999998         -4.2039802714174019E-007
  0.14520000000000000         -4.8080860264492643E-007
  0.14605000000000001         -5.4950675779371121E-007
  0.14689999999999998         -6.2760121617569920E-007
  0.14774999999999999         -7.1633916596334847E-007
  0.14860000000000001         -8.1712399994450887E-007
  0.14944999999999997         -9.3152866445244509E-007
  0.15029999999999999         -1.0613182657072702E-006
  0.15115000000000001         -1.2084664511882653E-006
  0.15199999999999997         -1.3751803356742407E-006
  0.15284999999999999         -1.5639233411837556E-006
  0.15370000000000000         -1.7774398789248087E-006
  0.15454999999999997         -2.0187829453264519E-006
  0.15539999999999998         -2.2913449466732800E-006
  0.15625000000000000         -2.5988854012786608E-006
  0.15709999999999996         -2.9455644439365598E-006
  0.15794999999999998         -3.3359757213814213E-006
  0.15880000000000000         -3.7751795196996240E-006
  0.15965000000000001         -4.2687427578837140E-006
  0.16049999999999998         -4.8227643205228082E-006
  0.16134999999999999         -5.4439222456756441E-006
  0.16220000000000001         -6.1394913536455413E-006
  0.16304999999999997         -6.9173867008251825E-006
  0.16389999999999999         -7.7861961101064455E-006
  0.16475000000000001         -8.7551853338666668E-006
  0.16559999999999997         -9.8343562883815452E-006
  0.16644999999999999         -1.1034412151733552E-005
  0.16730000000000000         -1.2366806893326501E-005
  0.16814999999999997         -1.3843733742662216E-005
  0.16899999999999998         -1.5478113271668459E-005
  0.16985000000000000         -1.7283592029864223E-005
  0.17069999999999996         -1.9274472533488926E-005
  0.17154999999999998         -2.1465686911265734E-005
  0.17240000000000000         -2.3872761270055360E-005
  0.17325000000000002         -2.6511690679583995E-005
  0.17409999999999998         -2.9398868312686539E-005
  0.17494999999999999         -3.2550986679640645E-005
  0.17580000000000001         -3.5984854729691978E-005
  0.17664999999999997         -3.9717257437044351E-005
  0.17749999999999999         -4.3764804138393863E-005
  0.17835000000000001         -4.8143657489826895E-005
  0.17919999999999997         -5.2869345560322441E-005
  0.18004999999999999         -5.7956503012687782E-005
  0.18090000000000001         -6.3418591169926673E-005
  0.18174999999999997         -6.9267578970635743E-005
  0.18259999999999998         -7.5513597601570666E-005
  0.18345000000000000         -8.2164644835398221E-005
  0.18429999999999996         -8.9226193339812248E-005
  0.18514999999999998         -9.6700792816604853E-005
  0.18600000000000000         -1.0458770875519325E-004
  0.18684999999999996         -1.1288237853821860E-004
  0.18769999999999998         -1.2157626933202328E-004
  0.18855000000000000         -1.3065616428180698E-004
  0.18940000000000001         -1.4010402312668294E-004
  0.19024999999999997         -1.4989630067320964E-004
  0.19109999999999999         -1.6000389384475256E-004
  0.19195000000000001         -1.7039147810358378E-004
  0.19279999999999997         -1.8101747931452213E-004
  0.19364999999999999         -1.9183349820124418E-004
  0.19450000000000001         -2.0278430578449190E-004
  0.19534999999999997         -2.1380767842021990E-004
  0.19619999999999999         -2.2483408956786794E-004
  0.19705000000000000         -2.3578666241756000E-004
  0.19789999999999996         -2.4658159603268680E-004
  0.19874999999999998         -2.5712788721301015E-004
  0.19960000000000000         -2.6732782866299633E-004
  0.20044999999999996         -2.7707710775194607E-004
  0.20129999999999998         -2.8626553675552686E-004
  0.20215000000000000         -2.9477699510889536E-004
  0.20300000000000001         -3.0249089815971510E-004
  0.20384999999999998         -3.0928237557320543E-004
  0.20469999999999999         -3.1502354011364245E-004
  0.20555000000000001         -3.1958410344613245E-004
  0.20639999999999997         -3.2283276412044520E-004
  0.20724999999999999         -3.2463831774985619E-004
  0.20810000000000001         -3.2487091492292480E-004
  0.20894999999999997         -3.2340355395504763E-004
  0.20979999999999999         -3.2011368978692952E-004
  0.21065000000000000         -3.1488422155940063E-004
  0.21149999999999997         -3.0760572637602500E-004
  0.21234999999999998         -2.9817767540353795E-004
  0.21320000000000000         -2.8651012221308939E-004
  0.21404999999999996         -2.7252550297382581E-004
  0.21489999999999998         -2.5615987443207324E-004
  0.21575000000000000         -2.3736472888040826E-004
  0.21659999999999996         -2.1610862378293314E-004
  0.21744999999999998         -1.9237807446300487E-004
  0.21829999999999999         -1.6617917608102812E-004
  0.21915000000000001         -1.3753866238137350E-004
  0.21999999999999997         -1.0650491911002478E-004
  0.22084999999999999         -7.3148444002179937E-005
  0.22170000000000001         -3.7562779357993835E-005
  0.22254999999999997          1.3527220561062698E-007
  0.22339999999999999          3.9805700980430456E-005
  0.22425000000000000          8.1284987029142083E-005
  0.22509999999999997          1.2438708436690601E-004
  0.22594999999999998          1.6890375931627628E-004
  0.22680000000000000          2.1460557850873797E-004
  0.22764999999999996          2.6124315175330267E-004
  0.22849999999999998          3.0854849445036223E-004
  0.22935000000000000          3.5623711712317035E-004
  0.23019999999999996          4.0400965466288151E-004
  0.23104999999999998          4.5155436232687489E-004
  0.23190000000000000          4.9854950484092724E-004
  0.23275000000000001          5.4466620233989925E-004
  0.23359999999999997          5.8957087550191552E-004
  0.23444999999999999          6.3292884304871802E-004
  0.23530000000000001          6.7440690420715263E-004
  0.23614999999999997          7.1367674772046487E-004
  0.23699999999999999          7.5041806852066840E-004
  0.23785000000000001          7.8432216279294650E-004
  0.23869999999999997          8.1509458691450423E-004
  0.23954999999999999          8.4245873741261852E-004
  0.24040000000000000          8.6615849676797084E-004
  0.24124999999999996          8.8596133214071716E-004
  0.24209999999999998          9.0166096995186219E-004
  0.24295000000000000          9.1307951976937383E-004
  0.24379999999999996          9.2007015153798143E-004
  0.24464999999999998          9.2251882861598680E-004
  0.24550000000000000          9.2034527263365148E-004
  0.24634999999999996          9.1350519183238039E-004
  0.24719999999999998          9.0199014003357781E-004
  0.24804999999999999          8.8582873396574535E-004
  0.24890000000000001          8.6508665627432562E-004
  0.24974999999999997          8.3986570428000798E-004
  0.25059999999999999          8.1030415431659875E-004
  0.25145000000000001          7.7657475148388243E-004
  0.25229999999999997          7.3888345769611752E-004
  0.25314999999999999          6.9746785274893051E-004
  0.25400000000000000          6.5259538439776412E-004
  0.25484999999999997          6.0455944315634198E-004
  0.25569999999999998          5.5367848954767241E-004
  0.25655000000000000          5.0029164666968409E-004
  0.25739999999999996          4.4475606265544890E-004
  0.25824999999999998          3.8744340762523338E-004
  0.25910000000000000          3.2873623964325391E-004
  0.25994999999999996          2.6902481494720090E-004
  0.26079999999999998          2.0870266903462542E-004
  0.26164999999999999          1.4816379878025677E-004
  0.26249999999999996          8.7798454252818563E-005
  0.26334999999999997          2.7989791706485065E-005
  0.26419999999999999         -3.0890142635253276E-005
  0.26505000000000001         -8.8482340280861076E-005
  0.26589999999999997         -1.4444497005018449E-004
  0.26674999999999999         -1.9845617633182134E-004
  0.26760000000000000         -2.5021604261712206E-004
  0.26844999999999997         -2.9944910635039071E-004
  0.26929999999999998         -3.4590639682142223E-004
  0.27015000000000000         -3.8936705841866460E-004
  0.27099999999999996         -4.2963971695918299E-004
  0.27184999999999998         -4.6656304988431952E-004
  0.27270000000000000         -5.0000692615041395E-004
  0.27354999999999996         -5.2987201962737592E-004
  0.27439999999999998         -5.5609018720289801E-004
  0.27524999999999999         -5.7862402955013341E-004
  0.27609999999999996         -5.9746622926737923E-004
  0.27694999999999997         -6.1263796704548955E-004
  0.27779999999999999         -6.2418848617519333E-004
  0.27865000000000001         -6.3219290476584521E-004
  0.27949999999999997         -6.3675057271668305E-004
  0.28034999999999999         -6.3798364268474956E-004
  0.28120000000000001         -6.3603421300939902E-004
  0.28204999999999997         -6.3106263854197336E-004
  0.28289999999999998         -6.2324503457210844E-004
  0.28375000000000000         -6.1277101222627470E-004
  0.28459999999999996         -5.9984097284972800E-004
  0.28544999999999998         -5.8466409281447186E-004
  0.28630000000000000         -5.6745586629181370E-004
  0.28714999999999996         -5.4843569025262264E-004
  0.28799999999999998         -5.2782453425137229E-004
  0.28885000000000000         -5.0584329582258091E-004
  0.28969999999999996         -4.8271014065408649E-004
  0.29054999999999997         -4.5863921454402621E-004
  0.29139999999999999         -4.3383848365712144E-004
  0.29224999999999995         -4.0850852214458362E-004
  0.29309999999999997         -3.8284104581912289E-004
  0.29394999999999999         -3.5701775579010937E-004
  0.29480000000000001         -3.3120921401248076E-004
  0.29564999999999997         -3.0557421538253605E-004
  0.29649999999999999         -2.8025918143712085E-004
  0.29735000000000000         -2.5539757875933590E-004
  0.29819999999999997         -2.3110962402891512E-004
  0.29904999999999998         -2.0750243022082628E-004
  0.29990000000000000         -1.8466982477452029E-004
  0.30074999999999996         -1.6269258119687275E-004
  0.30159999999999998         -1.4163871964207567E-004
  0.30245000000000000         -1.2156390616207794E-004
  0.30329999999999996         -1.0251195598836457E-004
  0.30414999999999998         -8.4515478698711665E-005
  0.30499999999999999         -6.7596500762536873E-005
  0.30584999999999996         -5.1767140076230875E-005
  0.30669999999999997         -3.7030468579848076E-005
  0.30754999999999999         -2.3381264777594708E-005
  0.30840000000000001         -1.0806745683927269E-005
  0.30924999999999997          7.1252296619718889E-007
  0.31009999999999999          1.1201934356538531E-005
  0.31095000000000000          2.0691953822072603E-005
  0.31179999999999997          2.9217416682188846E-005
  0.31264999999999998          3.6816853501651151E-005
  0.31350000000000000          4.3531736037448743E-005
  0.31434999999999996          4.9405790178739978E-005
  0.31519999999999998          5.4484530658631209E-005
  0.31605000000000000          5.8814595266307400E-005
  0.31689999999999996          6.2443329063412964E-005
  0.31774999999999998          6.5418281669619814E-005
  0.31859999999999999          6.7786821600771281E-005
  0.31944999999999996          6.9595722653044014E-005
  0.32029999999999997          7.0890896651192755E-005
  0.32114999999999999          7.1717163348444096E-005
  0.32199999999999995          7.2117977685099262E-005
  0.32284999999999997          7.2135212945500927E-005
  0.32369999999999999          7.1809102494218085E-005
  0.32455000000000001          7.1178048780843977E-005
  0.32539999999999997          7.0278501915365640E-005
  0.32624999999999998          6.9145038925746730E-005
  0.32710000000000000          6.7810128293329725E-005
  0.32794999999999996          6.6304251856318523E-005
  0.32879999999999998          6.4655843456323567E-005
  0.32965000000000000          6.2891327161714066E-005
  0.33049999999999996          6.1035036524264435E-005
  0.33134999999999998          5.9109388010503521E-005
  0.33220000000000000          5.7134785405205803E-005
  0.33304999999999996          5.5129755049502929E-005
  0.33389999999999997          5.3110903954859159E-005
  0.33474999999999999          5.1093045251599594E-005
  0.33559999999999995          4.9089260784350085E-005
  0.33644999999999997          4.7110927708297594E-005
  0.33729999999999999          4.5167838320484343E-005
  0.33815000000000001          4.3268205522617039E-005
  0.33899999999999997          4.1418907154551593E-005
  0.33984999999999999          3.9625417877938762E-005
  0.34070000000000000          3.7892007088233120E-005
  0.34154999999999996          3.6221808672812359E-005
  0.34239999999999998          3.4616917589492251E-005
  0.34325000000000000          3.3078516235264684E-005