 -0.12000000000000000          0.0000000000000000
 -0.11914999999999999          0.0000000000000000
 -0.11830000000000000          0.0000000000000000
 -0.11745000000000000          0.0000000000000000
 -0.11660000000000000          0.0000000000000000
 -0.11574999999999999          0.0000000000000000
 -0.11490000000000000          0.0000000000000000
 -0.11405000000000000          0.0000000000000000
 -0.11320000000000000          0.0000000000000000
 -0.11234999999999999          0.0000000000000000
 -0.11150000000000000          0.0000000000000000
 -0.11065000000000000          0.0000000000000000
 -0.10979999999999999          0.0000000000000000
 -0.10894999999999999          0.0000000000000000
 -0.10810000000000000          0.0000000000000000
 -0.10725000000000000          0.0000000000000000
 -0.10639999999999999          0.0000000000000000
 -0.10554999999999999         -1.2043220686679394E-047
 -0.10470000000000000         -6.6090720200577407E-047
 -0.10385000000000000         -1.3545338010100338E-046
 -0.10299999999999999          1.4122462723624969E-046
 -0.10214999999999999          9.8074811878459440E-047
 -0.10130000000000000          2.4872611866435241E-046
 -0.10045000000000000          3.9273885354826664E-045
  -9.9599999999999994E-002     1.5040515971894173E-044
  -9.8750000000000004E-002     3.6256705818035022E-044
  -9.7900000000000001E-002     3.5969810004621052E-044
  -9.7049999999999997E-002    -1.2121673635395362E-043
  -9.6199999999999994E-002    -7.9944887112192909E-043
  -9.5349999999999990E-002    -2.6151457249292056E-042
  -9.4500000000000001E-002    -6.0003139520811558E-042
  -9.3649999999999997E-002    -9.6060570811070499E-042
  -9.2799999999999994E-002    -7.0138008079355996E-042
  -9.1950000000000004E-002     1.7320317615176244E-041
  -9.1100000000000000E-002     8.8347577388884076E-041
  -9.0249999999999997E-002     2.2687667185705685E-040
  -8.9399999999999993E-002     4.0888815330902582E-040
  -8.8549999999999990E-002     4.9215830038654663E-040
  -8.7700000000000000E-002     1.3564374943465616E-040
  -8.6849999999999997E-002    -1.2031026259591469E-039
  -8.5999999999999993E-002    -4.0372699735780418E-039
  -8.5150000000000003E-002    -8.2134931256626312E-039
  -8.4300000000000000E-002    -1.1834848273528345E-038
  -8.3449999999999996E-002    -1.0117161124774820E-038
  -8.2600000000000007E-002     4.7765893904051091E-039
  -8.1749999999999989E-002     4.1202830453665853E-038
  -8.0900000000000000E-002     1.0103785174001048E-037
  -8.0049999999999996E-002     1.6795102749491149E-037
  -7.9199999999999993E-002     1.9450798942945468E-037
  -7.8350000000000003E-002     9.7531064878431545E-038
  -7.7499999999999999E-002    -2.2323589791785574E-037
  -7.6649999999999996E-002    -8.2761317609587420E-037
  -7.5800000000000006E-002    -1.6342381194875215E-036
  -7.4949999999999989E-002    -2.3000392377477511E-036
  -7.4099999999999999E-002    -2.1460291296115513E-036
  -7.3249999999999996E-002    -2.3827572766625690E-037
  -7.2399999999999992E-002     4.2543796234524570E-036
  -7.1550000000000002E-002     1.1362043196689688E-035
  -7.0699999999999999E-002     1.9372782136388455E-035
  -6.9849999999999995E-002     2.4010428195424281E-035
  -6.9000000000000006E-002     1.8389336312517424E-035
  -6.8149999999999988E-002    -5.4198237048370918E-036
  -6.7299999999999999E-002    -5.2545287098298841E-035
  -6.6449999999999995E-002    -1.1924745421842488E-034
  -6.5599999999999992E-002    -1.8605594482062444E-034
  -6.4750000000000002E-002    -2.1334366558716243E-034
  -6.3899999999999998E-002    -1.4419625127341692E-034
  -6.3049999999999995E-002     8.0164826972141509E-035
  -6.2199999999999998E-002     4.8923530323648201E-034
  -6.1350000000000002E-002     1.0387821468252308E-033
  -6.0499999999999998E-002     1.5647003121834225E-033
  -5.9650000000000002E-002     1.7579059322291897E-033
  -5.8799999999999998E-002     1.1921908070484765E-033
  -5.7950000000000002E-002    -5.6187776639269042E-034
  -5.7099999999999998E-002    -3.7180353017252483E-033
  -5.6249999999999994E-002    -7.9667245646481418E-033
  -5.5400000000000005E-002    -1.2152716931756251E-032
  -5.4550000000000001E-002    -1.4083167742670749E-032
  -5.3699999999999998E-002    -1.0674712603570525E-032
  -5.2849999999999994E-002     1.3325897614018260E-033
  -5.2000000000000005E-002     2.3938039929096679E-032
  -5.1150000000000001E-002     5.5769587742596424E-032
  -5.0299999999999997E-002     8.9709933744467157E-032
  -4.9449999999999994E-002     1.1115043312359413E-031
  -4.8600000000000004E-002     9.8244949692890321E-032
  -4.7750000000000001E-002     2.5796397986191475E-032
  -4.6899999999999997E-002    -1.2586031200710100E-031
  -4.6049999999999994E-002    -3.5674031061062553E-031
  -4.5200000000000004E-002    -6.2981068885609366E-031
  -4.4350000000000001E-002    -8.5542874759937088E-031
  -4.3499999999999997E-002    -8.8624593375751255E-031
  -4.2649999999999993E-002    -5.3378028828313042E-031
  -4.1800000000000004E-002     3.8241097641140992E-031
  -4.0950000000000000E-002     1.9473504286347168E-030
  -4.0099999999999997E-002     4.0315211159463678E-030
  -3.9249999999999993E-002     6.1654712376207680E-030
  -3.8400000000000004E-002     7.4567979487259649E-030
  -3.7550000000000000E-002     6.6189789262197514E-030
  -3.6699999999999997E-002     2.1894883634219498E-030
  -3.5850000000000007E-002    -7.0032688090965974E-030
  -3.5000000000000003E-002    -2.1120358226554023E-029
  -3.4150000000000000E-002    -3.8435086655534195E-029
  -3.3299999999999996E-002    -5.4527250965525620E-029
  -3.2450000000000007E-002    -6.1919996544593734E-029
  -3.1600000000000003E-002    -5.0631124779470305E-029
  -3.0750000000000000E-002    -1.0103209795298118E-029
  -2.9899999999999996E-002     6.7209992094218002E-029
  -2.9050000000000006E-002     1.8074196981591075E-028
  -2.8200000000000003E-002     3.1598974715269004E-028
  -2.7349999999999999E-002     4.3956614391792523E-028
  -2.6499999999999996E-002     4.9749989985045526E-028
  -2.5650000000000006E-002     4.1960862200511897E-028
  -2.4800000000000003E-002     1.3254601067802712E-028
  -2.3949999999999999E-002    -4.1712139067676996E-028
  -2.3099999999999996E-002    -1.2309309463743063E-027
  -2.2250000000000006E-002    -2.2224087905346020E-027
  -2.1400000000000002E-002    -3.1859416607227883E-027
  -2.0549999999999999E-002    -3.7838299281010014E-027
  -1.9699999999999995E-002    -3.5670977987819659E-027
  -1.8850000000000006E-002    -2.0446102438591603E-027
  -1.8000000000000002E-002     1.1909959235032916E-027
  -1.7149999999999999E-002     6.2841399989658259E-027
  -1.6299999999999995E-002     1.2905397382774519E-026
  -1.5450000000000005E-002     2.0052182508228991E-026
  -1.4600000000000002E-002     2.5925923553057535E-026
  -1.3749999999999998E-002     2.7965816899851336E-026
  -1.2899999999999995E-002     2.3120449657413367E-026
  -1.2050000000000005E-002     8.4179782554743198E-027
  -1.1200000000000002E-002    -1.8152521074103982E-026
  -1.0349999999999998E-002    -5.6513199077997491E-026
  -9.5000000000000084E-003    -1.0328891007551440E-025
  -8.6500000000000049E-003    -1.5079491862060720E-025
  -7.8000000000000014E-003    -1.8659545083379396E-025
  -6.9499999999999978E-003    -1.9406028085891253E-025
  -6.1000000000000082E-003    -1.5431871227883581E-025
  -5.2500000000000047E-003    -4.9867880288089350E-026
  -4.4000000000000011E-003     1.3018610482538229E-025
  -3.5499999999999976E-003     3.8369051135374822E-025
  -2.7000000000000079E-003     6.8876622804317551E-025
  -1.8500000000000044E-003     9.9839033208682474E-025
  -1.0000000000000009E-003     1.2382118231251026E-024
  -1.4999999999999736E-004     1.3098039320820846E-024
   6.9999999999999230E-004     1.1013912557423880E-024
   1.5499999999999958E-003     5.0736674068641869E-025
   2.3999999999999994E-003    -5.4346594502890293E-025
   3.2500000000000029E-003    -2.0530264589281394E-024
   4.0999999999999925E-003    -3.9171280726771898E-024
   4.9499999999999961E-003    -5.8940846235724003E-024
   5.7999999999999996E-003    -7.5885731773581152E-024
   6.6499999999999893E-003    -8.4619618947373086E-024
   7.5000000000000067E-003    -7.8799106852160425E-024
   8.3499999999999963E-003    -5.2050913457107991E-024
   9.1999999999999860E-003     6.3228226100642366E-026
   1.0050000000000003E-002     8.1102887612139373E-024
   1.0899999999999993E-002     1.8607310604970767E-023
   1.1750000000000010E-002     3.0526547966746569E-023
   1.2600000000000000E-002     4.2015996274117058E-023
   1.3449999999999990E-002     5.0388893493343425E-023
   1.4300000000000007E-002     5.2284829895649489E-023
   1.5149999999999997E-002     4.4049934629210198E-023
   1.5999999999999986E-002     2.2360001293688586E-023
   1.6850000000000004E-002    -1.4928895255864999E-023
   1.7699999999999994E-002    -6.7771666291601481E-023
   1.8549999999999983E-002    -1.3290105652289934E-022
   1.9400000000000001E-002    -2.0296971240938042E-022
   2.0249999999999990E-002    -2.6612198290062638E-022
   2.1100000000000008E-002    -3.0627819350457614E-022
   2.1949999999999997E-002    -3.0439764373484632E-022
   2.2799999999999987E-002    -2.4090919696124496E-022
   2.3650000000000004E-002    -9.9349994595559808E-023
   2.4499999999999994E-002     1.2896976440952646E-022
   2.5349999999999984E-002     4.3973971489042711E-022
   2.6200000000000001E-002     8.1063684020674104E-022
   2.7049999999999991E-002     1.1975980931794976E-021
   2.7900000000000008E-002     1.5336582405719604E-021
   2.8749999999999998E-002     1.7316822831636119E-021
   2.9599999999999987E-002     1.6921332826398822E-021
   3.0450000000000005E-002     1.3165298515435088E-021
   3.1299999999999994E-002     5.2643591391580351E-022
   3.2149999999999984E-002    -7.1329032930677778E-022
   3.3000000000000002E-002    -2.3695863717252856E-021
   3.3849999999999991E-002    -4.3185761737102001E-021
   3.4700000000000009E-002    -6.3303914393091046E-021
   3.5549999999999998E-002    -8.0672168554182380E-021
   3.6399999999999988E-002    -9.1002073583221987E-021
   3.7250000000000005E-002    -8.9496766217684113E-021
   3.8099999999999995E-002    -7.1504264754620074E-021
   3.8949999999999985E-002    -3.3402589514632719E-021
   3.9800000000000002E-002     2.6351987142326379E-021
   4.0649999999999992E-002     1.0613706452247348E-020
   4.1500000000000009E-002     2.0021333006280691E-020
   4.2349999999999999E-002     2.9812839540882848E-020
   4.3199999999999988E-002     3.8471004526730470E-020
   4.4050000000000006E-002     4.4086653095266269E-020
   4.4899999999999995E-002     4.4534942803989457E-020
   4.5749999999999985E-002     3.7752582690900324E-020
   4.6600000000000003E-002     2.2105063410248227E-020
   4.7449999999999992E-002    -3.1859380824867149E-021
   4.8299999999999982E-002    -3.7605073008979662E-020
   4.9149999999999999E-002    -7.8964545339493789E-020
   4.9999999999999989E-002    -1.2316612193194985E-019
   5.0850000000000006E-002    -1.6419017733563349E-019
   5.1699999999999996E-002    -1.9438941867049241E-019
   5.2549999999999986E-002    -2.0514094184717091E-019
   5.3400000000000003E-002    -1.8787014196630080E-019
   5.4249999999999993E-002    -1.3540528966721643E-019
   5.5099999999999982E-002    -4.3556646675702259E-020
   5.5950000000000000E-002     8.7254208558033822E-020
   5.6799999999999989E-002     2.5054980145810060E-019
   5.7650000000000007E-002     4.3281525806410199E-019
   5.8499999999999996E-002     6.1327020436456277E-019
   5.9349999999999986E-002     7.6465663016156250E-019
   6.0200000000000004E-002     8.5522911978792765E-019
   6.1049999999999993E-002     8.5200899199669894E-019
   6.1899999999999983E-002     7.2519419728936733E-019
   6.2750000000000000E-002     4.5341778311314585E-019
   6.3599999999999990E-002     2.9338713477412725E-020
   6.4450000000000007E-002    -5.3514126761908365E-019
   6.5299999999999997E-002    -1.2048786425279709E-018
   6.6149999999999987E-002    -1.9196050378460045E-018
   6.7000000000000004E-002    -2.5949991897381521E-018
   6.7849999999999994E-002    -3.1273608953860833E-018
   6.8699999999999983E-002    -3.4022043011271069E-018
   6.9550000000000001E-002    -3.3066334844259610E-018
   7.0399999999999990E-002    -2.7448192645241446E-018
   7.1249999999999980E-002    -1.6553061029266637E-018
   7.2099999999999997E-002    -2.8333449435171080E-020
   7.2949999999999987E-002     2.0790919048332868E-018
   7.3800000000000004E-002     4.5328774267358995E-018
   7.4649999999999994E-002     7.1187589422035937E-018
   7.5499999999999984E-002     9.5485758991098836E-018
   7.6350000000000001E-002     1.1477344045380322E-017
   7.7199999999999991E-002     1.2531520339972593E-017
   7.8049999999999981E-002     1.2347571276848766E-017
   7.8899999999999998E-002     1.0618488024760925E-017
   7.9749999999999988E-002     7.1444336134383400E-018
   8.0600000000000005E-002     1.8823805606544992E-018
   8.1449999999999995E-002    -5.0113331038575408E-018
   8.2299999999999984E-002    -1.3152035138824647E-017
   8.3150000000000002E-002    -2.1917590856990837E-017
   8.3999999999999991E-002    -3.0464323700008526E-017
   8.4849999999999981E-002    -3.7771393111371131E-017
   8.5699999999999998E-002    -4.2714509541117075E-017
   8.6549999999999988E-002    -4.4166781051616420E-017
   8.7400000000000005E-002    -4.1121080211333624E-017
   8.8249999999999995E-002    -3.2825015813650366E-017
   8.9099999999999985E-002    -1.8916553024375521E-017
   8.9950000000000002E-002     4.5379746864980357E-019
   9.0799999999999992E-002     2.4529505414021488E-017
   9.1649999999999981E-002     5.1898124117794683E-017
   9.2499999999999999E-002     8.0498065486869228E-017
   9.3349999999999989E-002     1.0769167413732156E-016
   9.4200000000000006E-002     1.3040928255395751E-016
   9.5049999999999996E-002     1.4536299453664183E-016
   9.5899999999999985E-002     1.4932183466854929E-016
   9.6750000000000003E-002     1.3943326450219316E-016
   9.7599999999999992E-002     1.1356901044964585E-016
   9.8449999999999982E-002     7.0668014114423883E-017
   9.9299999999999999E-002     1.1045000392570198E-017
  0.10014999999999999         -6.3368137128727222E-017
  0.10099999999999998         -1.4888065248769372E-016
  0.10185000000000000         -2.4002945347259073E-016
  0.10269999999999999         -3.2971643764869457E-016
  0.10355000000000000         -4.0950998502828000E-016
  0.10439999999999999         -4.7011373766322122E-016
  0.10524999999999998         -5.0199218206661806E-016
  0.10610000000000000         -4.9613004323290249E-016
  0.10694999999999999         -4.4488815106640067E-016
  0.10779999999999998         -3.4290602971865099E-016
  0.10865000000000000         -1.8798964668867474E-016
  0.10949999999999999          1.8085849253211188E-017
  0.11035000000000000          2.6893408062120017E-016
  0.11119999999999999          5.5315347674421543E-016
  0.11204999999999998          8.5423500593050933E-016
  0.11290000000000000          1.1508467241532438E-015
  0.11374999999999999          1.4175448908170876E-015
  0.11459999999999998          1.6259407355668133E-015
  0.11545000000000000          1.7463252835444575E-015
  0.11629999999999999          1.7497203917078897E-015
  0.11715000000000000          1.6102894094304709E-015
  0.11799999999999999          1.3079990063382770E-015
  0.11884999999999998          8.3138334255369254E-016
  0.11970000000000000          1.8022436712780749E-016
  0.12054999999999999         -6.3207103100961362E-016
  0.12139999999999998         -1.5766407758110364E-015
  0.12225000000000000         -2.6081349786978718E-015
  0.12309999999999999         -3.6647255631055875E-015
  0.12395000000000000         -4.6693730054882637E-015
  0.12479999999999999         -5.5325137873878462E-015
  0.12564999999999998         -6.1562578891104899E-015
  0.12650000000000000         -6.4400867202871737E-015
  0.12734999999999999         -6.2879243460192870E-015
  0.12819999999999998         -5.6163255258553788E-015
  0.12905000000000000         -4.3633896402494238E-015
  0.12989999999999999         -2.4978731108579733E-015
  0.13074999999999998         -2.7858662148397563E-017
  0.13159999999999999          2.9917528486163755E-015
  0.13245000000000001          6.4537052229643584E-015
  0.13329999999999997          1.0195598576085313E-014
  0.13414999999999999          1.4000567516794595E-014
  0.13500000000000001          1.7602045925232479E-014
  0.13584999999999997          2.0693032040284193E-014
  0.13669999999999999          2.2940044788805852E-014
  0.13755000000000001          2.4001636279913554E-014
  0.13839999999999997          2.3551023086468338E-014
  0.13924999999999998          2.1302001254555008E-014
  0.14010000000000000          1.7036954700208280E-014
  0.14094999999999996          1.0635437639366198E-014
  0.14179999999999998          2.1014904633559749E-015
  0.14265000000000000         -8.4123648343726142E-015
  0.14350000000000002         -2.0586642200498938E-014
  0.14434999999999998         -3.3924133599560121E-014
  0.14520000000000000         -4.7748953527973709E-014
  0.14605000000000001         -6.1217193248686075E-014
  0.14689999999999998         -7.3340588343005141E-014
  0.14774999999999999         -8.3023992492362709E-014
  0.14860000000000001         -8.9116674760890746E-014
  0.14944999999999997         -9.0476786354948073E-014
  0.15029999999999999         -8.6047165015944036E-014
  0.15115000000000001         -7.4939766222853558E-014
  0.15199999999999997         -5.6525011152017645E-014
  0.15284999999999999         -3.0521344549888049E-014
  0.15370000000000000          2.9205615812862290E-015
  0.15454999999999997          4.3145010051930234E-014
  0.15539999999999998          8.8936580517593950E-014
  0.15625000000000000          1.3848997181525077E-013
  0.15709999999999996          1.8941075146609837E-013
  0.15794999999999998          2.3875234355044844E-013
  0.15880000000000000          2.8309368368117476E-013
  0.15965000000000001          3.1865975579840678E-013
  0.16049999999999998          3.4148576695808948E-013
  0.16134999999999999          3.4762236785587854E-013
  0.16220000000000001          3.3337741762229798E-013
  0.16304999999999997          2.9558577894747354E-013
  0.16389999999999999          2.3189679249402138E-013
  0.16475000000000001          1.4106486990044858E-013
  0.16559999999999997          2.3227535225497368E-014
  0.16644999999999999         -1.1984798832275753E-013
  0.16730000000000000         -2.8456897364567873E-013
  0.16814999999999997         -4.6539205909075721E-013
  0.16899999999999998         -6.5478805722834047E-013
  0.16985000000000000         -8.4331372991041301E-013
  0.17069999999999996         -1.0198047949471427E-012
  0.17154999999999998         -1.1716987525693399E-012
  0.17240000000000000         -1.2854926812531372E-012
  0.17325000000000002         -1.3473315610366399E-012
  0.17409999999999998         -1.3437176953167610E-012
  0.17494999999999999         -1.2623218752945297E-012
  0.17580000000000001         -1.0928689655665683E-012
  0.17664999999999997         -8.2806261729973903E-013
  0.17749999999999999         -4.6450729422750673E-013
  0.17835000000000001         -3.5762118534276963E-015
  0.17919999999999997          5.4782698169151601E-013
  0.18004999999999999          1.1766708345231500E-012
  0.18090000000000001          1.8634190251294126E-012
  0.18174999999999997          2.5819294388038630E-012
  0.18259999999999998          3.2996761077158262E-012
  0.18345000000000000          3.9783351359056750E-012
  0.18429999999999996          4.5747598548714287E-012
  0.18514999999999998          5.0423596887060012E-012
  0.18600000000000000          5.3328724064592650E-012
  0.18684999999999996          5.3985048332947176E-012
  0.18769999999999998          5.1943933418356376E-012
  0.18855000000000000          4.6813114132780183E-012
  0.18940000000000001          3.8285264806185989E-012
  0.19024999999999997          2.6166957155178068E-012
  0.19109999999999999          1.0406651358223233E-012
  0.19195000000000001         -8.8798024961979395E-013
  0.19279999999999997         -3.1387696868274208E-012
  0.19364999999999999         -5.6607670844178534E-012
  0.19450000000000001         -8.3817164387478604E-012
  0.19534999999999997         -1.1208060101710394E-011
  0.19619999999999999         -1.4025957761447852E-011
  0.19705000000000000         -1.6703406610958382E-011
  0.19789999999999996         -1.9093531388632369E-011
  0.19874999999999998         -2.1039059091489037E-011
  0.19960000000000000         -2.2377953783785275E-011
  0.20044999999999996         -2.2950133297853982E-011
  0.20129999999999998         -2.2605132260082220E-011
  0.20215000000000000         -2.1210502329861494E-011
  0.20300000000000001         -1.8660718045158637E-011
  0.20384999999999998         -1.4886246452213305E-011
  0.20469999999999999         -9.8624758673767817E-012
  0.20555000000000001         -3.6180796962356619E-012
  0.20639999999999997          3.7575862934951496E-012
  0.20724999999999999          1.2108472862419934E-011
  0.20810000000000001          2.1207639667864639E-011
  0.20894999999999997          3.0755270792282731E-011
  0.20979999999999999          4.0379250381018416E-011
  0.21065000000000000          4.9638631104679688E-011
  0.21149999999999997          5.8030201639731830E-011
  0.21234999999999998          6.4998311336980324E-011
  0.21320000000000000          6.9948010259016050E-011
  0.21404999999999996          7.2261473402802199E-011
  0.21489999999999998          7.1317442713198823E-011
  0.21575000000000000          6.6513585701513078E-011
  0.21659999999999996          5.7291189488488278E-011
  0.21744999999999998          4.3161902143994246E-011
  0.21829999999999999          2.3735819252308825E-011
  0.21915000000000001         -1.2495821652624129E-012
  0.21999999999999997         -3.1900344273552951E-011
  0.22084999999999999         -6.8137420363752746E-011
  0.22170000000000001         -1.0966906301515584E-010
  0.22254999999999997         -1.5596482804724591E-010
  0.22339999999999999         -2.0623146305164558E-010
  0.22425000000000000         -2.5939103016473499E-010
  0.22509999999999997         -3.1406120793792958E-010
  0.22594999999999998         -3.6853759435819944E-010
  0.22680000000000000         -4.2077744110491084E-010
  0.22764999999999996         -4.6838424005541547E-010
  0.22849999999999998         -5.0859158759096597E-010
  0.22935000000000000         -5.3824524733128974E-010
  0.23019999999999996         -5.5378127177826905E-010
  0.23104999999999998         -5.5119790106972876E-010
  0.23190000000000000         -5.2601878004908278E-010
  0.23275000000000001         -4.7324441048337624E-010
  0.23359999999999997         -3.8728817227687557E-010
  0.23444999999999999         -2.6189328783089838E-010
  0.23530000000000001         -9.0026468939151297E-011
  0.23614999999999997          1.3625607871756985E-010
  0.23699999999999999          4.2597517952655402E-010
  0.23785000000000001          7.8943302323008543E-010
  0.23869999999999997          1.2384600996527063E-009
  0.23954999999999999          1.7867108998969097E-009
  0.24040000000000000          2.4500144376630624E-009
  0.24124999999999996          3.2467857843008196E-009
  0.24209999999999998          4.1985055973633945E-009
  0.24295000000000000          5.3302759508680813E-009
  0.24379999999999996          6.6714547412484134E-009
  0.24464999999999998          8.2563858762106431E-009
  0.24550000000000000          1.0125222404881859E-008
  0.24634999999999996          1.2324861060482644E-008
  0.24719999999999998          1.4909995789735990E-008
  0.24804999999999999          1.7944300502790646E-008
  0.24890000000000001          2.1501748699983794E-008
  0.24974999999999997          2.5668090389562183E-008
  0.25059999999999999          3.0542490858044667E-008
  0.25145000000000001          3.6239349126359945E-008
  0.25229999999999997          4.2890306498704591E-008
  0.25314999999999999          5.0646486709333440E-008
  0.25400000000000000          5.9680929663150509E-008
  0.25484999999999997          7.0191292861693298E-008
  0.25569999999999998          8.2402812532233847E-008
  0.25655000000000000          9.6571513074582184E-008
  0.25739999999999996          1.1298773615581124E-007
  0.25824999999999998          1.3197994108721196E-007
  0.25910000000000000          1.5391886658385672E-007
  0.25994999999999996          1.7922202626392163E-007
  0.26079999999999998          2.0835843207289240E-007
  0.26164999999999999          2.4185380710253287E-007
  0.26249999999999996          2.8029596456939176E-007
  0.26334999999999997          3.2434070100109670E-007
  0.26419999999999999          3.7471773781617401E-007
  0.26505000000000001          4.3223723137996482E-007
  0.26589999999999997          4.9779626463567803E-007
  0.26674999999999999          5.7238567798169313E-007
  0.26760000000000000          6.5709703295068411E-007
  0.26844999999999997          7.5312947345678223E-007
  0.26929999999999998          8.6179684298326722E-007
  0.27015000000000000          9.8453439924231115E-007
  0.27099999999999996          1.1229055803861640E-006
  0.27184999999999998          1.2786079573348032E-006
  0.27270000000000000          1.4534791887965339E-006
  0.27354999999999996          1.6495016708996112E-006
  0.27439999999999998          1.8688069758152512E-006
  0.27524999999999999          2.1136784008994886E-006
  0.27609999999999996          2.3865531477510575E-006
  0.27694999999999997          2.6900214951386959E-006
  0.27779999999999999          3.0268260471102402E-006
  0.27865000000000001          3.3998573502085509E-006
  0.27949999999999997          3.8121475857418205E-006
  0.28034999999999999          4.2668621132807117E-006
  0.28120000000000001          4.7672874855647519E-006
  0.28204999999999997          5.3168167722865834E-006
  0.28289999999999998          5.9189311095824278E-006
  0.28375000000000000          6.5771765276694351E-006
  0.28459999999999996          7.2951396209678647E-006
  0.28544999999999998          8.0764161504148198E-006
  0.28630000000000000          8.9245767488021588E-006
  0.28714999999999996          9.8431271005758599E-006
  0.28799999999999998          1.0835464600416514E-005
  0.28885000000000000          1.1904828789954395E-005
  0.28969999999999996          1.3054248200362058E-005
  0.29054999999999997          1.4286484047504842E-005
  0.29139999999999999          1.5603966049675489E-005
  0.29224999999999995          1.7008728280280270E-005
  0.29309999999999997          1.8502334046121297E-005
  0.29394999999999999          2.0085806341962542E-005
  0.29480000000000001          2.1759547534055069E-005
  0.29564999999999997          2.3523260331746067E-005
  0.29649999999999999          2.5375869602902979E-005
  0.29735000000000000          2.7315437662850221E-005
  0.29819999999999997          2.9339082730293510E-005
  0.29904999999999998          3.1442898070862849E-005
  0.29990000000000000          3.3621870900019644E-005
  0.30074999999999996          3.5869823094315068E-005
  0.30159999999999998          3.8179319517632040E-005
  0.30245000000000000          4.0541618326951981E-005
  0.30329999999999996          4.2946610766301512E-005
  0.30414999999999998          4.5382780961264428E-005
  0.30499999999999999          4.7837166196910403E-005
  0.30584999999999996          5.0295328914593565E-005
  0.30669999999999997          5.2741357061834583E-005
  0.30754999999999999          5.5157857398423819E-005
  0.30840000000000001          5.7525999544617907E-005
  0.30924999999999997          5.9825529192880933E-005
  0.31009999999999999          6.2034843642679353E-005
  0.31095000000000000          6.4131081604238137E-005
  0.31179999999999997          6.6090199062723918E-005
  0.31264999999999998          6.7887112152137101E-005
  0.31350000000000000          6.9495833815687270E-005
  0.31434999999999996          7.0889629739803752E-005
  0.31519999999999998          7.2041230612229586E-005
  0.31605000000000000          7.2923031837651716E-005
  0.31689999999999996          7.3507301358439626E-005
  0.31774999999999998          7.3766480688606376E-005
  0.31859999999999999          7.3673405780620108E-005
  0.31944999999999996          7.3201602481507344E-005
  0.32029999999999997          7.2325605710199983E-005
  0.32114999999999999          7.1021228975554835E-005
  0.32199999999999995          6.9265927242961525E-005
  0.32284999999999997          6.7039085604193310E-005
  0.32369999999999999          6.4322348277809341E-005
  0.32455000000000001          6.1099952928964611E-005
  0.32539999999999997          5.7359026584810312E-005
  0.32624999999999998          5.3089901355327337E-005
  0.32710000000000000          4.8286402051594963E-005
  0.32794999999999996          4.2946123945692880E-005
  0.32879999999999998          3.7070683168533228E-005
  0.32965000000000000          3.0665926375690098E-005
  0.33049999999999996          2.3742118920325685E-005
  0.33134999999999998          1.6314101451973148E-005
  0.33220000000000000          8.4014006567409484E-006
  0.33304999999999996          2.8302508570494902E-008
  0.33389999999999997         -8.7761202343381060E-006
  0.33474999999999999         -1.7978041447452549E-005
  0.33559999999999995         -2.7538954911051361E-005
  0.33644999999999997         -3.7415795457630104E-005
  0.33729999999999999         -4.7561126257188407E-005
  0.33815000000000001         -5.7923363482065506E-005
  0.33899999999999997         -6.8447068063563646E-005
  0.33984999999999999         -7.9073279931883643E-005
  0.34070000000000000         -8.9739903081550326E-005
  0.34154999999999996         -1.0038214822383512E-004
  0.34239999999999998         -1.1093299093434082E-004
  0.34325000000000000         -1.2132373388999354E-004
  0.34409999999999996         -1.3148452010714281E-004