 -0.12000000000000000          0.0000000000000000
 -0.11914999999999999          0.0000000000000000
 -0.11830000000000000          0.0000000000000000
 -0.11745000000000000          0.0000000000000000
 -0.11660000000000000          0.0000000000000000
 -0.11574999999999999          0.0000000000000000
 -0.11490000000000000         -6.4852082444225004E-027
 -0.11405000000000000         -6.6569987965476001E-026
 -0.11320000000000000         -3.4887481144971476E-025
 -0.11234999999999999         -1.2225177133863224E-024
 -0.11150000000000000         -3.1373103789613526E-024
 -0.11065000000000000         -5.9873045340474210E-024
 -0.10979999999999999         -7.8064518703000943E-024
 -0.10894999999999999         -3.3709483179691981E-024
 -0.10810000000000000          1.5481836881364099E-023
 -0.10725000000000000          5.4998010034464569E-023
 -0.10639999999999999          1.0798218335696603E-022
 -0.10554999999999999          1.3744011755458420E-022
 -0.10470000000000000          6.4812940903262080E-023
 -0.10385000000000000         -2.1913737488514703E-022
 -0.10299999999999999         -7.9932832390559079E-022
 -0.10214999999999999         -1.6262636908793249E-021
 -0.10130000000000000         -2.3709255137420883E-021
 -0.10045000000000000         -2.3144033336924604E-021
  -9.9599999999999994E-002    -3.9329098753085520E-022
  -9.8750000000000004E-002     4.4587155306459938E-021
  -9.7900000000000001E-002     1.2587602146883389E-020
  -9.7049999999999997E-002     2.2590128757208964E-020
  -9.6199999999999994E-002     3.0317085272854115E-020
  -9.5349999999999990E-002     2.8539571359723170E-020
  -9.4500000000000001E-002     8.0910695399078764E-021
  -9.3649999999999997E-002    -3.8821030609458475E-020
  -9.2799999999999994E-002    -1.1303246782964780E-019
  -9.1950000000000004E-002    -2.0158054608107913E-019
  -9.1100000000000000E-002    -2.7207957093472588E-019
  -9.0249999999999997E-002    -2.7212467272799519E-019
  -8.9399999999999993E-002    -1.3801743168128966E-019
  -8.8549999999999990E-002     1.8409532652941561E-019
  -8.7700000000000000E-002     7.0504672129764687E-019
  -8.6849999999999997E-002     1.3535215579434305E-018
  -8.5999999999999993E-002     1.9439557586592601E-018
  -8.5150000000000003E-002     2.1703590631321708E-018
  -8.4300000000000000E-002     1.6468170339807425E-018
  -8.3449999999999996E-002     9.9367496932852663E-021
  -8.2600000000000007E-002    -2.9165001744584518E-018
  -8.1749999999999989E-002    -6.9187772016153023E-018
  -8.0900000000000000E-002    -1.1206296329082797E-017
  -8.0049999999999996E-002    -1.4321510007393485E-017
  -7.9199999999999993E-002    -1.4241049257239602E-017
  -7.8350000000000003E-002    -8.7490001976000597E-018
  -7.7499999999999999E-002     3.8860419170648038E-018
  -7.6649999999999996E-002     2.3986202048697646E-017
  -7.5800000000000006E-002     4.9464008838564649E-017
  -7.4949999999999989E-002     7.5040000736361702E-017
  -7.4099999999999999E-002     9.2060590558754176E-017
  -7.3249999999999996E-002     8.9311747083474783E-017
  -7.2399999999999992E-002     5.5119274655878675E-017
  -7.1550000000000002E-002    -1.9219590544032297E-017
  -7.0699999999999999E-002    -1.3500997623729283E-016
  -6.9849999999999995E-002    -2.8154279364553857E-016
  -6.9000000000000006E-002    -4.3254887511303322E-016
  -6.8149999999999988E-002    -5.4529905106280447E-016
  -6.7299999999999999E-002    -5.6394496649703854E-016
  -6.6449999999999995E-002    -4.2828407363556122E-016
  -6.5599999999999992E-002    -8.8218753624031446E-017
  -6.4750000000000002E-002     4.7721393009247599E-016
  -6.3899999999999998E-002     1.2390807519172636E-015
  -6.3049999999999995E-002     2.1006259796626731E-015
  -6.2199999999999998E-002     2.8880711242489952E-015
  -6.1350000000000002E-002     3.3564568117592047E-015
  -6.0499999999999998E-002     3.2159092991762876E-015
  -5.9650000000000002E-002     2.1811071142084784E-015
  -5.8799999999999998E-002     4.2413369946149216E-017
  -5.7950000000000002E-002    -3.2485528346920995E-015
  -5.7099999999999998E-002    -7.4924198872847625E-015
  -5.6249999999999994E-002    -1.2173855873974094E-014
  -5.5400000000000005E-002    -1.6434521441101975E-014
  -5.4550000000000001E-002    -1.9110069930479430E-014
  -5.3699999999999998E-002    -1.8849226724303467E-014
  -5.2849999999999994E-002    -1.4322442632185756E-014
  -5.2000000000000005E-002    -4.5117072602482670E-015
  -5.1150000000000001E-002     1.0946816847380165E-014
  -5.0299999999999997E-002     3.1416866478680592E-014
  -4.9449999999999994E-002     5.4980964927030498E-014
  -4.8600000000000004E-002     7.8303748121554187E-014
  -4.7750000000000001E-002     9.6718951080256345E-014
  -4.6899999999999997E-002     1.0460359858290184E-013
  -4.6049999999999994E-002     9.6069864467272279E-014
  -4.5200000000000004E-002     6.5955460936478327E-014
  -4.4350000000000001E-002     1.1032368184951261E-014
  -4.3499999999999997E-002    -6.8712176204413327E-014
  -4.2649999999999993E-002    -1.6892694599343229E-013
  -4.1800000000000004E-002    -2.8012423874404990E-013
  -4.0950000000000000E-002    -3.8753513219442458E-013
  -4.0099999999999997E-002    -4.7180935630421771E-013
  -3.9249999999999993E-002    -5.1069584715766965E-013
  -3.8400000000000004E-002    -4.8171367174191336E-013
  -3.7550000000000000E-002    -3.6566278298720981E-013
  -3.6699999999999997E-002    -1.5064794768496456E-013
  -3.5850000000000007E-002     1.6387792638405100E-013
  -3.5000000000000003E-002     5.6366960810804096E-013
  -3.4150000000000000E-002     1.0175234801204163E-012
  -3.3299999999999996E-002     1.4770324308208692E-012
  -3.2450000000000007E-002     1.8787645351541664E-012
  -3.1600000000000003E-002     2.1491231277624438E-012
  -3.0750000000000000E-002     2.2118136264406612E-012
  -2.9899999999999996E-002     1.9974575249884781E-012
  -2.9050000000000006E-002     1.4545030791197881E-012
  -2.8200000000000003E-002     5.6024510088517954E-013
  -2.7349999999999999E-002    -6.6946349759526303E-013
  -2.6499999999999996E-002    -2.1733062426965393E-012
  -2.5650000000000006E-002    -3.8417829460115822E-012
  -2.4800000000000003E-002    -5.5197537758746982E-012
  -2.3949999999999999E-002    -7.0148347333282243E-012
  -2.3099999999999996E-002    -8.1116241186572805E-012
  -2.2250000000000006E-002    -8.5910445612394344E-012
  -2.1400000000000002E-002    -8.2534249551079100E-012
  -2.0549999999999999E-002    -6.9433556527038538E-012
  -1.9699999999999995E-002    -4.5739571020871140E-012
  -1.8850000000000006E-002    -1.1480235053120792E-012
  -1.8000000000000002E-002     3.2264347065425349E-012
  -1.7149999999999999E-002     8.3283836649661734E-012
  -1.6299999999999995E-002     1.3825270679688986E-011
  -1.5450000000000005E-002     1.9284706972296842E-011
  -1.4600000000000002E-002     2.4196373579113668E-011
  -1.3749999999999998E-002     2.8003375263229961E-011
  -1.2899999999999995E-002     3.0141456959817459E-011
  -1.2050000000000005E-002     3.0083922343430220E-011
  -1.1200000000000002E-002     2.7389459139569196E-011
  -1.0349999999999998E-002     2.1749890683240052E-011
  -9.5000000000000084E-003     1.3034538510956132E-011
  -8.6500000000000049E-003     1.3279850893584380E-012
  -7.8000000000000014E-003    -1.3041960364911191E-011
  -6.9499999999999978E-003    -2.9489014508299280E-011
  -6.1000000000000082E-003    -4.7168552763228767E-011
  -5.2500000000000047E-003    -6.4995160156541869E-011
  -4.4000000000000011E-003    -8.1679096517308239E-011
  -3.5499999999999976E-003    -9.5782291124711076E-011
  -2.7000000000000079E-003    -1.0579325713437642E-010
  -1.8500000000000044E-003    -1.1021902145675924E-010
  -1.0000000000000009E-003    -1.0769065773930298E-010
  -1.4999999999999736E-004    -9.7077139426914479E-011
   6.9999999999999230E-004    -7.7600770029291720E-011
   1.5499999999999958E-003    -4.8945914886205994E-011
   2.3999999999999994E-003    -1.1351836798787410E-011
   3.2500000000000029E-003     3.4319946797624569E-011
   4.0999999999999925E-003     8.6552297572548883E-011
   4.9499999999999961E-003     1.4318116258008447E-010
   5.7999999999999996E-003     2.0145039480067094E-010
   6.6499999999999893E-003     2.5811489699169172E-010
   7.5000000000000067E-003     3.0958943756044952E-010
   8.3499999999999963E-003     3.5213715715131984E-010
   9.1999999999999860E-003     3.8208729371069210E-010
   1.0050000000000003E-002     3.9607021017601510E-010
   1.0899999999999993E-002     3.9125370346578570E-010
   1.1750000000000010E-002     3.6556654176258473E-010
   1.2600000000000000E-002     3.1789513276645978E-010
   1.3449999999999990E-002     2.4824170756913939E-010
   1.4300000000000007E-002     1.5783720979745622E-010
   1.5149999999999997E-002     4.9205507646853483E-011
   1.5999999999999986E-002    -7.3819630800563456E-011
   1.6850000000000004E-002    -2.0611848151337611E-010
   1.7699999999999994E-002    -3.4134334836857589E-010
   1.8549999999999983E-002    -4.7199741289471056E-010
   1.9400000000000001E-002    -5.8952563096660925E-010
   2.0249999999999990E-002    -6.8440771681663253E-010
   2.1100000000000008E-002    -7.4624219847838718E-010
   2.1949999999999997E-002    -7.6382297361991333E-010
   2.2799999999999987E-002    -7.2518945937345838E-010
   2.3650000000000004E-002    -6.1767030087076320E-010
   2.4499999999999994E-002    -4.2789429426600135E-010
   2.5349999999999984E-002    -1.4177569235392641E-010
   2.6200000000000001E-002     2.5552902434348323E-010
   2.7049999999999991E-002     7.7970691984733050E-010
   2.7900000000000008E-002     1.4474519757042560E-009
   2.8749999999999998E-002     2.2766946251156946E-009
   2.9599999999999987E-002     3.2869187310263839E-009
   3.0450000000000005E-002     4.4996395583922972E-009
   3.1299999999999994E-002     5.9389759882643487E-009
   3.2149999999999984E-002     7.6324418758965347E-009
   3.3000000000000002E-002     9.6118722379669144E-009
   3.3849999999999991E-002     1.1914559259550942E-008
   3.4700000000000009E-002     1.4584581594002292E-008
   3.5549999999999998E-002     1.7674291655145998E-008
   3.6399999999999988E-002     2.1246018372353847E-008
   3.7250000000000005E-002     2.5373952093930637E-008
   3.8099999999999995E-002     3.0146142910440500E-008
   3.8949999999999985E-002     3.5666624725791877E-008
   3.9800000000000002E-002     4.2057899841147507E-008
   4.0649999999999992E-002     4.9463361435807064E-008
   4.1500000000000009E-002     5.8050003033536024E-008
   4.2349999999999999E-002     6.8011396300649626E-008
   4.3199999999999988E-002     7.9570910547194199E-008
   4.4050000000000006E-002     9.2985068501197062E-008
   4.4899999999999995E-002     1.0854758358777344E-007
   4.5749999999999985E-002     1.2659343381326416E-007
   4.6600000000000003E-002     1.4750364798959009E-007
   4.7449999999999992E-002     1.7171025131921702E-007
   4.8299999999999982E-002     1.9970234174563282E-007
   4.9149999999999999E-002     2.3203213492374470E-007
   4.9999999999999989E-002     2.6932168558990435E-007
   5.0850000000000006E-002     3.1227090437931763E-007
   5.1699999999999996E-002     3.6166539773081528E-007
   5.2549999999999986E-002     4.1838512175531697E-007
   5.3400000000000003E-002     4.8341558884097529E-007
   5.4249999999999993E-002     5.5785537898139663E-007
   5.5099999999999982E-002     6.4293050692667240E-007
   5.5950000000000000E-002     7.4000266840805796E-007
   5.6799999999999989E-002     8.5058383474152183E-007
   5.7650000000000007E-002     9.7634771962999247E-007
   5.8499999999999996E-002     1.1191444316646794E-006
   5.9349999999999986E-002     1.2810108841034272E-006
   6.0200000000000004E-002     1.4641845707565491E-006
   6.1049999999999993E-002     1.6711199602307931E-006
   6.1899999999999983E-002     1.9044964154555902E-006
   6.2750000000000000E-002     2.1672317581749009E-006
   6.3599999999999990E-002     2.4624967433888231E-006
   6.4450000000000007E-002     2.7937159361654758E-006
   6.5299999999999997E-002     3.1645901390626974E-006
   6.6149999999999987E-002     3.5790869562087528E-006
   6.7000000000000004E-002     4.0414616368421832E-006
   6.7849999999999994E-002     4.5562463570320653E-006
   6.8699999999999983E-002     5.1282567300517580E-006
   6.9550000000000001E-002     5.7625885565980486E-006
   7.0399999999999990E-002     6.4646084745805097E-006
   7.1249999999999980E-002     7.2399409340324070E-006
   7.2099999999999997E-002     8.0944528054662560E-006
   7.2949999999999987E-002     9.0342409120242658E-006
   7.3800000000000004E-002     1.0065599596799299E-005
   7.4649999999999994E-002     1.1194974138184248E-005
   7.5499999999999984E-002     1.2428946164373660E-005
   7.6350000000000001E-002     1.3774155843286529E-005
   7.7199999999999991E-002     1.5237266385775160E-005
   7.8049999999999981E-002     1.6824886158123149E-005
   7.8899999999999998E-002     1.8543493766729566E-005
   7.9749999999999988E-002     2.0399359381715151E-005
   8.0600000000000005E-002     2.2398455022068613E-005
   8.1449999999999995E-002     2.4546343448641338E-005
   8.2299999999999984E-002     2.6848069077274114E-005
   8.3150000000000002E-002     2.9308001624591728E-005
   8.3999999999999991E-002     3.1929788086127151E-005
   8.4849999999999981E-002     3.4716143681238088E-005
   8.5699999999999998E-002     3.7668721650527183E-005
   8.6549999999999988E-002     4.0787991204860392E-005
   8.7400000000000005E-002     4.4073065446143042E-005
   8.8249999999999995E-002     4.7521515672593230E-005
   8.9099999999999985E-002     5.1129266828559551E-005
   8.9950000000000002E-002     5.4890426648090092E-005
   9.0799999999999992E-002     5.8797087516471724E-005
   9.1649999999999981E-002     6.2839215606255545E-005
   9.2499999999999999E-002     6.7004543061248813E-005
   9.3349999999999989E-002     7.1278400664573978E-005
   9.4200000000000006E-002     7.5643542362975027E-005
   9.5049999999999996E-002     8.0080103440420311E-005
   9.5899999999999985E-002     8.4565559487418486E-005
   9.6750000000000003E-002     8.9074535218200524E-005
   9.7599999999999992E-002     9.3578897887755606E-005
   9.8449999999999982E-002     9.8047653476410657E-005
   9.9299999999999999E-002     1.0244703514034450E-004
  0.10014999999999999          1.0674049453170679E-004
  0.10099999999999998          1.1088878618770967E-004
  0.10185000000000000          1.1485016575047869E-004
  0.10269999999999999          1.1858045578774390E-004
  0.10355000000000000          1.2203334684926539E-004
  0.10439999999999999          1.2516059948369793E-004
  0.10524999999999998          1.2791241572115525E-004
  0.10610000000000000          1.3023771377353199E-004
  0.10694999999999999          1.3208433268290055E-004
  0.10779999999999998          1.3339999341993087E-004
  0.10865000000000000          1.3413218267184095E-004
  0.10949999999999999          1.3422902557154849E-004
  0.11035000000000000          1.3363979870573294E-004
  0.11119999999999999          1.3231526905055948E-004
  0.11204999999999998          1.3020876179816709E-004
  0.11290000000000000          1.2727607758533920E-004
  0.11374999999999999          1.2347684256916176E-004
  0.11459999999999998          1.1877489760634740E-004
  0.11545000000000000          1.1313856667575009E-004
  0.11629999999999999          1.0654185054870592E-004
  0.11715000000000000          9.8964664526006619E-005
  0.11799999999999999          9.0393752833866210E-005
  0.11884999999999998          8.0822836436737248E-005
  0.11970000000000000          7.0253695069930655E-005
  0.12054999999999999          5.8695771491413688E-005
  0.12139999999999998          4.6167223129983017E-005
  0.12225000000000000          3.2695475486488017E-005
  0.12309999999999999          1.8316355775497569E-005
  0.12395000000000000          3.0754108067002555E-006
  0.12479999999999999         -1.2972576170489598E-005
  0.12564999999999998         -2.9763740826314349E-005
  0.12650000000000000         -4.7224752859249410E-005
  0.12734999999999999         -6.5273501080214902E-005
  0.12819999999999998         -8.3819388424562200E-005
  0.12905000000000000         -1.0276383891216659E-004
  0.12989999999999999         -1.2200052762126747E-004
  0.13074999999999998         -1.4141640546011316E-004
  0.13159999999999999         -1.6089237659663494E-004
  0.13245000000000001         -1.8030416311196380E-004
  0.13329999999999997         -1.9952309187909893E-004
  0.13414999999999999         -2.1841752909293084E-004
  0.13500000000000001         -2.3685364922248854E-004
  0.13584999999999997         -2.5469678342987539E-004
  0.13669999999999999         -2.7181260758645816E-004
  0.13755000000000001         -2.8806838728189611E-004
  0.13839999999999997         -3.0333446847266940E-004
  0.13924999999999998         -3.1748520604716685E-004
  0.14010000000000000         -3.3040051773869302E-004
  0.14094999999999996         -3.4196695514451190E-004
  0.14179999999999998         -3.5207927901632495E-004
  0.14265000000000000         -3.6064097135368273E-004
  0.14350000000000002         -3.6756600914546265E-004
  0.14434999999999998         -3.7277944834378506E-004
  0.14520000000000000         -3.7621844440997100E-004
  0.14605000000000001         -3.7783288648941029E-004
  0.14689999999999998         -3.7758631632580806E-004
  0.14774999999999999         -3.7545631723765165E-004
  0.14860000000000001         -3.7143473481748070E-004
  0.14944999999999997         -3.6552818965050732E-004
  0.15029999999999999         -3.5775814072783538E-004
  0.15115000000000001         -3.4816068465478206E-004
  0.15199999999999997         -3.3678643324042238E-004
  0.15284999999999999         -3.2369971282313439E-004
  0.15370000000000000         -3.0897864703885436E-004
  0.15454999999999997         -2.9271459296991608E-004
  0.15539999999999998         -2.7501024668379634E-004
  0.15625000000000000         -2.5597986051956244E-004
  0.15709999999999996         -2.3574738753481562E-004
  0.15794999999999998         -2.1444616112801647E-004
  0.15880000000000000         -1.9221688397414382E-004
  0.15965000000000001         -1.6920657285601382E-004
  0.16049999999999998         -1.4556743540013024E-004
  0.16134999999999999         -1.2145477922310595E-004
  0.16220000000000001         -9.7026468252567907E-005
  0.16304999999999997         -7.2440436433105168E-005
  0.16389999999999999         -4.7854406712414499E-005
  0.16475000000000001         -2.3423498052917575E-005
  0.16559999999999997          7.0055660592286838E-007
  0.16644999999999999          2.4371310322866566E-005
  0.16730000000000000          4.7448165447017316E-005
  0.16814999999999997          6.9798122572351179E-005
  0.16899999999999998          9.1296076607986571E-005
  0.16985000000000000          1.1182702515354998E-004
  0.17069999999999996          1.3128540128044781E-004
  0.17154999999999998          1.4957676613072977E-004
  0.17240000000000000          1.6661819349813109E-004
  0.17325000000000002          1.8233847296411973E-004
  0.17409999999999998          1.9667871156273483E-004
  0.17494999999999999          2.0959204303588907E-004
  0.17580000000000001          2.2104464415854179E-004
  0.17664999999999997          2.3101435533896483E-004
  0.17749999999999999          2.3949108653143343E-004
  0.17835000000000001          2.4647690007894674E-004
  0.17919999999999997          2.5198489225229225E-004
  0.18004999999999999          2.5603910400597430E-004
  0.18090000000000001          2.5867346294055401E-004
  0.18174999999999997          2.5993113174782145E-004
  0.18259999999999998          2.5986449512902692E-004
  0.18345000000000000          2.5853342001601115E-004
  0.18429999999999996          2.5600459124648916E-004
  0.18514999999999998          2.5235092862645956E-004
  0.18600000000000000          2.4765029353306139E-004
  0.18684999999999996          2.4198467886276789E-004
  0.18769999999999998          2.3543910819049562E-004
  0.18855000000000000          2.2810108850776069E-004
  0.18940000000000001          2.2005941955385313E-004
  0.19024999999999997          2.1140324589426093E-004
  0.19109999999999999          2.0222152617861569E-004
  0.19195000000000001          1.9260199733766201E-004
  0.19279999999999997          1.8263065756910017E-004
  0.19364999999999999          1.7239094564360731E-004
  0.19450000000000001          1.6196325488998623E-004
  0.19534999999999997          1.5142426550408456E-004
  0.19619999999999999          1.4084666020459409E-004
  0.19705000000000000          1.3029859895181826E-004
  0.19789999999999996          1.1984349769562875E-004
  0.19874999999999998          1.0953967338271626E-004
  0.19960000000000000          9.9440241207744394E-005
  0.20044999999999996          8.9593020130908721E-005
  0.20129999999999998          8.0040432277057695E-005
  0.20215000000000000          7.0819609151573409E-005
  0.20300000000000001          6.1962292220396698E-005
  0.20384999999999998          5.3495109481187674E-005
  0.20469999999999999          4.5439681242101802E-005
  0.20555000000000001          3.7812791220321686E-005
  0.20639999999999997          3.0626705061643680E-005
  0.20724999999999999          2.3889370965937853E-005
  0.20810000000000001          1.7604602192714632E-005
  0.20894999999999997          1.1772586048459692E-005
  0.20979999999999999          6.3901569393741539E-006
  0.21065000000000000          1.4509546925862371E-006
  0.21149999999999997         -3.0540555837882417E-006
  0.21234999999999998         -7.1363260312169055E-006
  0.21320000000000000         -1.0809390144803130E-005
  0.21404999999999996         -1.4088557233427483E-005
  0.21489999999999998         -1.6990589235437198E-005
  0.21575000000000000         -1.9533460075208769E-005
  0.21659999999999996         -2.1736030395609386E-005
  0.21744999999999998         -2.3617806225498090E-005
  0.21829999999999999         -2.5198809286226837E-005
  0.21915000000000001         -2.6499144555898459E-005
  0.21999999999999997         -2.7538983583230769E-005
  0.22084999999999999         -2.8338329555582522E-005
  0.22170000000000001         -2.8916890601283475E-005
  0.22254999999999997         -2.9293914026099148E-005
  0.22339999999999999         -2.9488043116305932E-005
  0.22425000000000000         -2.9517370144185080E-005
  0.22509999999999997         -2.9399127644767488E-005
  0.22594999999999998         -2.9149808332406274E-005
  0.22680000000000000         -2.8785137486502919E-005
  0.22764999999999996         -2.8319854708754003E-005
  0.22849999999999998         -2.7767937212074936E-005
  0.22935000000000000         -2.7142364055460432E-005
  0.23019999999999996         -2.6455225193738684E-005
  0.23104999999999998         -2.5717748606568992E-005
  0.23190000000000000         -2.4940268406962012E-005
  0.23275000000000001         -2.4132203879919070E-005
  0.23359999999999997         -2.3302132064589931E-005
  0.23444999999999999         -2.2457853204255472E-005
  0.23530000000000001         -2.1606386599850267E-005
  0.23614999999999997         -2.0753962099680549E-005
  0.23699999999999999         -1.9906134354808975E-005
  0.23785000000000001         -1.9067809756561035E-005
  0.23869999999999997         -1.8243223481167248E-005
  0.23954999999999999         -1.7436032186282364E-005
  0.24040000000000000         -1.6649333236200742E-005
  0.24124999999999996         -1.5885732270460687E-005
  0.24209999999999998         -1.5147311043103940E-005
  0.24295000000000000         -1.4435753706057898E-005
  0.24379999999999996         -1.3752323879189062E-005
  0.24464999999999998         -1.3097912391304652E-005
  0.24550000000000000         -1.2473087283701636E-005
  0.24634999999999996         -1.1878128360921881E-005
  0.24719999999999998         -1.1313069962931793E-005
  0.24804999999999999         -1.0777689915647234E-005
  0.24890000000000001         -1.0271556987652458E-005
  0.24974999999999997         -9.7940914338979486E-006
  0.25059999999999999         -9.3444990960180360E-006
  0.25145000000000001         -8.9218845573018934E-006
  0.25229999999999997         -8.5252131701817481E-006
  0.25314999999999999         -8.1533771299679148E-006
  0.25400000000000000         -7.8051966915252877E-006
  0.25484999999999997         -7.4794439427948568E-006
  0.25569999999999998         -7.1748652196726829E-006
  0.25655000000000000         -6.8902049663290208E-006
  0.25739999999999996         -6.6242078139586070E-006
  0.25824999999999998         -6.3756259820956868E-006
  0.25910000000000000         -6.1432651222710078E-006
  0.25994999999999996         -5.9259227344881713E-006
  0.26079999999999998         -5.7224255871362887E-006
  0.26164999999999999         -5.5316370148034839E-006
  0.26249999999999996         -5.3524384081349715E-006
  0.26334999999999997         -5.1837536702735147E-006
  0.26419999999999999         -5.0245155194071603E-006
  0.26505000000000001         -4.8737153514109718E-006
  0.26589999999999997         -4.7303901415540241E-006
  0.26674999999999999         -4.5936241150564783E-006
  0.26760000000000000         -4.4625341114083959E-006
  0.26844999999999997         -4.3363175865179737E-006
  0.26929999999999998         -4.2142075653979535E-006
  0.27015000000000000         -4.0954978633545997E-006
  0.27099999999999996         -3.9795221879843267E-006
  0.27184999999999998         -3.8656723316705390E-006
  0.27270000000000000         -3.7533940354985721E-006
  0.27354999999999996         -3.6421896071001614E-006
  0.27439999999999998         -3.5316157894689655E-006
  0.27524999999999999         -3.4213023155492134E-006
  0.27609999999999996         -3.3109454167578827E-006
  0.27694999999999997         -3.2003240628077564E-006
  0.27779999999999999         -3.0892883336034578E-006
  0.27865000000000001         -2.9777671659718711E-006
  0.27949999999999997         -2.8657682085814496E-006
  0.28034999999999999         -2.7533850701816873E-006
  0.28120000000000001         -2.6407713792821236E-006
  0.28204999999999997         -2.5281756124306314E-006
  0.28289999999999998         -2.4158843005033170E-006
  0.28375000000000000         -2.3042655360017538E-006
  0.28459999999999996         -2.1937231760068183E-006
  0.28544999999999998         -2.0847101727706113E-006
  0.28630000000000000         -1.9777097483704324E-006
  0.28714999999999996         -1.8732227306334337E-006
  0.28799999999999998         -1.7717374160175911E-006
  0.28885000000000000         -1.6737530563249887E-006
  0.28969999999999996         -1.5797341286023531E-006
  0.29054999999999997         -1.4901183455446503E-006
  0.29139999999999999         -1.4053014097653424E-006
  0.29224999999999995         -1.3256286222580337E-006
  0.29309999999999997         -1.2514198198471543E-006
  0.29394999999999999         -1.1829225708655718E-006
  0.29480000000000001         -1.1203470798531448E-006
  0.29564999999999997         -1.0638449837661893E-006
  0.29649999999999999         -1.0135121913099268E-006
  0.29735000000000000         -9.6938197708195651E-007
  0.29819999999999997         -9.3141726317666019E-007
  0.29904999999999998         -8.9952926426108582E-007
  0.29990000000000000         -8.7355697486621600E-007
  0.30074999999999996         -8.5327715977464148E-007
  0.30159999999999998         -8.3840889183014613E-007
  0.30245000000000000         -8.2863673219155930E-007
  0.30329999999999996         -8.2360964856859405E-007
  0.30414999999999998         -8.2295717638283738E-007
  0.30499999999999999         -8.2629928219474132E-007
  0.30584999999999996         -8.3325691064666984E-007
  0.30669999999999997         -8.4345258524234767E-007
  0.30754999999999999         -8.5652372204737397E-007
  0.30840000000000001         -8.7210047077280723E-007
  0.30924999999999997         -8.8982782548593493E-007
  0.31009999999999999         -9.0934205644055550E-007
  0.31095000000000000         -9.3027098648003158E-007
  0.31179999999999997         -9.5224529825998518E-007
  0.31264999999999998         -9.7488294815463408E-007
  0.31350000000000000         -9.9780024723779830E-007
  0.31434999999999996         -1.0206181942812306E-006
  0.31519999999999998         -1.0429515401250881E-006
  0.31605000000000000         -1.0644321844039125E-006
  0.31689999999999996         -1.0846934269219063E-006
  0.31774999999999998         -1.1033822412304255E-006
  0.31859999999999999         -1.1201491598621684E-006
  0.31944999999999996         -1.1346630895405247E-006
  0.32029999999999997         -1.1465977353182785E-006
  0.32114999999999999         -1.1556288814297005E-006
  0.32199999999999995         -1.1614483495637618E-006
  0.32284999999999997         -1.1637568494597422E-006
  0.32369999999999999         -1.1622710454506753E-006
  0.32455000000000001         -1.1567361149676214E-006
  0.32539999999999997         -1.1469256867196381E-006
  0.32624999999999998         -1.1326528257136702E-006
  0.32710000000000000         -1.1137718672932866E-006
  0.32794999999999996         -1.0901991686967580E-006
  0.32879999999999998         -1.0618942808691231E-006
  0.32965000000000000         -1.0288881749689615E-006
  0.33049999999999996         -9.9127341489394550E-007
  0.33134999999999998         -9.4921800547169840E-007
  0.33220000000000000         -9.0295359289022906E-007
  0.33304999999999996         -8.5279489136902399E-007
  0.33389999999999997         -7.9912315724575140E-007
  0.33474999999999999         -7.4238614428564726E-007
  0.33559999999999995         -6.8309870040312364E-007
  0.33644999999999997         -6.2182501819309327E-007
  0.33729999999999999         -5.5917218385577706E-007
  0.33815000000000001         -4.9578126961086757E-007
  0.33899999999999997         -4.3231900160831331E-007
  0.33984999999999999         -3.6946150232708709E-007
  0.34070000000000000         -3.0788656185222685E-007
  0.34154999999999996         -2.4826312638868366E-007
  0.34239999999999998         -1.9124292385116303E-007
  0.34325000000000000         -1.3744803777107321E-007