 -0.12000000000000000          0.0000000000000000
 -0.11914999999999999          7.3731898448233946E-012
 -0.11830000000000000          2.0138590304029441E-011
 -0.11745000000000000          3.3684330416762556E-011
 -0.11660000000000000          4.2390855279046618E-011
 -0.11574999999999999          4.1796709361328163E-011
 -0.11490000000000000          3.0650118681016269E-011
 -0.11405000000000000          1.2189366276369671E-011
 -0.11320000000000000         -5.8198193051473460E-012
 -0.11234999999999999         -1.2434648785240989E-011
 -0.11150000000000000          3.9581547448918184E-012
 -0.11065000000000000          5.2534968871295031E-011
 -0.10979999999999999          1.3707219011507774E-010
 -0.10894999999999999          2.5386335165794201E-010
 -0.10810000000000000          3.9105862425126244E-010
 -0.10725000000000000          5.2963556240123678E-010
 -0.10639999999999999          6.4582800373028638E-010
 -0.10554999999999999          7.1450676991353619E-010
 -0.10470000000000000          7.1282086330173580E-010
 -0.10385000000000000          6.2339328989541855E-010
 -0.10299999999999999          4.3655400326223422E-010
 -0.10214999999999999          1.5138319144321747E-010
 -0.10130000000000000         -2.2429921700941037E-010
 -0.10045000000000000         -6.7456641383356029E-010
  -9.9599999999999994E-002    -1.1760837512748159E-009
  -9.8750000000000004E-002    -1.6982728609443670E-009
  -9.7900000000000001E-002    -2.2025978868096754E-009
  -9.7049999999999997E-002    -2.6408708280613773E-009
  -9.6199999999999994E-002    -2.9528397721299916E-009
  -9.5349999999999990E-002    -3.0635937364855138E-009
  -9.4500000000000001E-002    -2.8813758870130280E-009
  -9.3649999999999997E-002    -2.2964906844648686E-009
  -9.2799999999999994E-002    -1.1815576892927672E-009
  -9.1950000000000004E-002     6.0673954042628663E-010
  -9.1100000000000000E-002     3.2247797972496311E-009
  -9.0249999999999997E-002     6.8386933626574523E-009
  -8.9399999999999993E-002     1.1621410040928376E-008
  -8.8549999999999990E-002     1.7750893485797814E-008
  -8.7700000000000000E-002     2.5410520693859712E-008
  -8.6849999999999997E-002     3.4791818450289286E-008
  -8.5999999999999993E-002     4.6100077158330930E-008
  -8.5150000000000003E-002     5.9562574513941236E-008
  -8.4300000000000000E-002     7.5439275237687963E-008
  -8.3449999999999996E-002     9.4035533105573865E-008
  -8.2600000000000007E-002     1.1571659750406508E-007
  -8.1749999999999989E-002     1.4092314295937136E-007
  -8.0900000000000000E-002     1.7018804423581785E-007
  -8.0049999999999996E-002     2.0415418904249547E-007
  -7.9199999999999993E-002     2.4359230674026320E-007
  -7.8350000000000003E-002     2.8942069266533594E-007
  -7.7499999999999999E-002     3.4272421638885232E-007
  -7.6649999999999996E-002     4.0477451342221321E-007
  -7.5800000000000006E-002     4.7705205392595258E-007
  -7.4949999999999989E-002     5.6126777155125371E-007
  -7.4099999999999999E-002     6.5938692637365249E-007
  -7.3249999999999996E-002     7.7365554078312196E-007
  -7.2399999999999992E-002     9.0662970520258201E-007
  -7.1550000000000002E-002     1.0612074355347277E-006
  -7.0699999999999999E-002     1.2406682522057499E-006
  -6.9849999999999995E-002     1.4487107979060763E-006
  -6.9000000000000006E-002     1.6895031291832983E-006
  -6.8149999999999988E-002     1.9677306112376897E-006
  -6.7299999999999999E-002     2.2886494225977663E-006
  -6.6449999999999995E-002     2.6581461917092211E-006
  -6.5599999999999992E-002     3.0827939101116928E-006
  -6.4750000000000002E-002     3.5699175237990219E-006
  -6.3899999999999998E-002     4.1276553174857767E-006
  -6.3049999999999995E-002     4.7650245950832088E-006
  -6.2199999999999998E-002     5.4919975118382501E-006
  -6.1350000000000002E-002     6.3195697890194166E-006
  -6.0499999999999998E-002     7.2598470271704433E-006
  -5.9650000000000002E-002     8.3261233060752583E-006
  -5.8799999999999998E-002     9.5329678564778133E-006
  -5.7950000000000002E-002     1.0896312445552875E-005
  -5.7099999999999998E-002     1.2433533675934124E-005
  -5.6249999999999994E-002     1.4163537816956168E-005
  -5.5400000000000005E-002     1.6106817463897766E-005
  -5.4550000000000001E-002     1.8285525528915922E-005
  -5.3699999999999998E-002     2.0723505603303316E-005
  -5.2849999999999994E-002     2.3446327679684218E-005
  -5.2000000000000005E-002     2.6481310777214678E-005
  -5.1150000000000001E-002     2.9857504126500794E-005
  -5.0299999999999997E-002     3.3605674403102496E-005
  -4.9449999999999994E-002     3.7758291705835417E-005
  -4.8600000000000004E-002     4.2349455844120870E-005
  -4.7750000000000001E-002     4.7414836801536040E-005
  -4.6899999999999997E-002     5.2991558007023273E-005
  -4.6049999999999994E-002     5.9118106468704376E-005
  -4.5200000000000004E-002     6.5834147730336556E-005
  -4.4350000000000001E-002     7.3180323709018941E-005
  -4.3499999999999997E-002     8.1198027582041324E-005
  -4.2649999999999993E-002     8.9929080808289299E-005
  -4.1800000000000004E-002     9.9415394710718194E-005
  -4.0950000000000000E-002     1.0969856727984927E-004
  -4.0099999999999997E-002     1.2081936339426638E-004
  -3.9249999999999993E-002     1.3281733368882380E-004
  -3.8400000000000004E-002     1.4573010753388225E-004
  -3.7550000000000000E-002     1.5959288474881497E-004
  -3.6699999999999997E-002     1.7443771764183097E-004
  -3.5850000000000007E-002     1.9029278091732112E-004
  -3.5000000000000003E-002     2.0718167223102927E-004
  -3.4150000000000000E-002     2.2512267853496085E-004
  -3.3299999999999996E-002     2.4412777773548703E-004
  -3.2450000000000007E-002     2.6420193993602478E-004
  -3.1600000000000003E-002     2.8534208609450724E-004
  -3.0750000000000000E-002     3.0753628197788404E-004
  -2.9899999999999996E-002     3.3076274560723504E-004
  -2.9050000000000006E-002     3.5498896210263311E-004
  -2.8200000000000003E-002     3.8017052395178852E-004
  -2.7349999999999999E-002     4.0625058566952528E-004
  -2.6499999999999996E-002     4.3315866104425693E-004
  -2.5650000000000006E-002     4.6080977856449918E-004
  -2.4800000000000003E-002     4.8910395602587290E-004
  -2.3949999999999999E-002     5.1792529962093464E-004
  -2.3099999999999996E-002     5.4714178704294830E-004
  -2.2250000000000006E-002     5.7660413482356137E-004
  -2.1400000000000002E-002     6.0614633722742492E-004
  -2.0549999999999999E-002     6.3558469905865397E-004
  -1.9699999999999995E-002     6.6471854207687396E-004
  -1.8850000000000006E-002     6.9333035934373915E-004
  -1.8000000000000002E-002     7.2118559299136418E-004
  -1.7149999999999999E-002     7.4803353395320484E-004
  -1.6299999999999995E-002     7.7360918340071104E-004
  -1.5450000000000005E-002     7.9763295389397287E-004
  -1.4600000000000002E-002     8.1981277694388440E-004
  -1.3749999999999998E-002     8.3984529838816843E-004
  -1.2899999999999995E-002     8.5741843983770064E-004
  -1.2050000000000005E-002     8.7221273853451407E-004
  -1.1200000000000002E-002     8.8390440276924192E-004
  -1.0349999999999998E-002     8.9216740824521359E-004
  -9.5000000000000084E-003     8.9667719730905388E-004
  -8.6500000000000049E-003     8.9711308913384663E-004
  -7.8000000000000014E-003     8.9316200904856525E-004
  -6.9499999999999978E-003     8.8452152140560802E-004
  -6.1000000000000082E-003     8.7090456637224753E-004
  -5.2500000000000047E-003     8.5204182629290118E-004
  -4.4000000000000011E-003     8.2768681218461102E-004
  -3.5499999999999976E-003     7.9761914767959084E-004
  -2.7000000000000079E-003     7.6164877071857140E-004
  -1.8500000000000044E-003     7.1961898678844197E-004
  -1.0000000000000009E-003     6.7141092987392916E-004
  -1.4999999999999736E-004     6.1694681288585720E-004
   6.9999999999999230E-004     5.5619292887218225E-004
   1.5499999999999958E-003     4.8916302800351555E-004
   2.3999999999999994E-003     4.1592173420107491E-004
   3.2500000000000029E-003     3.3658517340133618E-004
   4.0999999999999925E-003     2.5132466287784510E-004
   4.9499999999999961E-003     1.6036713542313670E-004
   5.7999999999999996E-003     6.3996406559474483E-005
   6.6499999999999893E-003    -3.7445997298525844E-005
   7.5000000000000067E-003    -1.4356206201652212E-004
   8.3499999999999963E-003    -2.5389685234532017E-004
   9.1999999999999860E-003    -3.6794152224365012E-004
   1.0050000000000003E-002    -4.8513442734462157E-004
   1.0899999999999993E-002    -6.0486418184173870E-004
   1.1750000000000010E-002    -7.2647302989551580E-004
   1.2600000000000000E-002    -8.4926161817408996E-004
   1.3449999999999990E-002    -9.7249257682160148E-004
   1.4300000000000007E-002    -1.0953973922413175E-003
   1.5149999999999997E-002    -1.2171808883933344E-003
   1.5999999999999986E-002    -1.3370280357514180E-003
   1.6850000000000004E-002    -1.4541116757207226E-003
   1.7699999999999994E-002    -1.5675987027503496E-003
   1.8549999999999983E-002    -1.6766579360125487E-003
   1.9400000000000001E-002    -1.7804677090387368E-003
   2.0249999999999990E-002    -1.8782239394965438E-003
   2.1100000000000008E-002    -1.9691482895512124E-003
   2.1949999999999997E-002    -2.0524958463933166E-003
   2.2799999999999987E-002    -2.1275623274816377E-003
   2.3650000000000004E-002    -2.1936929957259827E-003
   2.4499999999999994E-002    -2.2502879501830712E-003
   2.5349999999999984E-002    -2.2968108614828064E-003
   2.6200000000000001E-002    -2.3327931785044930E-003
   2.7049999999999991E-002    -2.3578413898237569E-003
   2.7900000000000008E-002    -2.3716409234440009E-003
   2.8749999999999998E-002    -2.3739603956743796E-003
   2.9599999999999987E-002    -2.3646559832683363E-003
   3.0450000000000005E-002    -2.3436718217030544E-003
   3.1299999999999994E-002    -2.3110434779932453E-003
   3.2149999999999984E-002    -2.2668972220982568E-003
   3.3000000000000002E-002    -2.2114503484497706E-003
   3.3849999999999991E-002    -2.1450099361081747E-003
   3.4700000000000009E-002    -2.0679690862454845E-003
   3.5549999999999998E-002    -1.9808051384184898E-003
   3.6399999999999988E-002    -1.8840757312949485E-003
   3.7250000000000005E-002    -1.7784121545388501E-003
   3.8099999999999995E-002    -1.6645140790640613E-003
   3.8949999999999985E-002    -1.5431439116397375E-003
   3.9800000000000002E-002    -1.4151194050879981E-003
   4.0649999999999992E-002    -1.2813047288528076E-003
   4.1500000000000009E-002    -1.1426029573630837E-003
   4.2349999999999999E-002    -9.9994689663381346E-004
   4.3199999999999988E-002    -8.5429136703789440E-004
   4.4050000000000006E-002    -7.0660333273157567E-004
   4.4899999999999995E-002    -5.5785241224471326E-004
   4.5749999999999985E-002    -4.0900212774212601E-004
   4.6600000000000003E-002    -2.6100256282536398E-004
   4.7449999999999992E-002    -1.1477999181249611E-004
   4.8299999999999982E-002     2.8771212269503976E-005
   4.9149999999999999E-002     1.6879613064563336E-004
   4.9999999999999989E-002     3.0448395060975371E-004
   5.0850000000000006E-002     4.3507834637999574E-004
   5.1699999999999996E-002     5.5988146590122063E-004
   5.2549999999999986E-002     6.7825893908458163E-004
   5.3400000000000003E-002     7.8964301110394223E-004
   5.4249999999999993E-002     8.9353816727440487E-004
   5.5099999999999982E-002     9.8952169137247114E-004
   5.5950000000000000E-002     1.0772473055348840E-003
   5.6799999999999989E-002     1.1564439934598750E-003
   5.7650000000000007E-002     1.2269169372474827E-003
   5.8499999999999996E-002     1.2885463785664044E-003
   5.9349999999999986E-002     1.3412869802317514E-003
   6.0200000000000004E-002     1.3851638734080729E-003
   6.1049999999999993E-002     1.4202700300596995E-003
   6.1899999999999983E-002     1.4467637017112486E-003
   6.2750000000000000E-002     1.4648630589306009E-003
   6.3599999999999990E-002     1.4748426077089937E-003
   6.4450000000000007E-002     1.4770266016426966E-003
   6.5299999999999997E-002     1.4717849155108124E-003
   6.6149999999999987E-002     1.4595271459788342E-003
   6.7000000000000004E-002     1.4406965986626247E-003
   6.7849999999999994E-002     1.4157649107719985E-003
   6.8699999999999983E-002     1.3852253036482321E-003
   6.9550000000000001E-002     1.3495878786920561E-003
   7.0399999999999990E-002     1.3093729239147301E-003
   7.1249999999999980E-002     1.2651062306520667E-003
   7.2099999999999997E-002     1.2173137862654905E-003
   7.2949999999999987E-002     1.1665162368966816E-003
   7.3800000000000004E-002     1.1132254074141638E-003
   7.4649999999999994E-002     1.0579395414544272E-003
   7.5499999999999984E-002     1.0011395222277951E-003
   7.6350000000000001E-002     9.4328587130358037E-004
   7.7199999999999991E-002     8.8481598303461883E-004
   7.8049999999999981E-002     8.2614116524851405E-004
   7.8899999999999998E-002     7.6764548387017295E-004
   7.9749999999999988E-002     7.0968370052780885E-004
   8.0600000000000005E-002     6.5258032860091031E-004
   8.1449999999999995E-002     5.9662897800004497E-004
   8.2299999999999984E-002     5.4209191745351320E-004
   8.3150000000000002E-002     4.8920027218772447E-004
   8.3999999999999991E-002     4.3815431835401433E-004
   8.4849999999999981E-002     3.8912425438014561E-004
   8.5699999999999998E-002     3.4225110745881524E-004
   8.6549999999999988E-002     2.9764804547164887E-004
   8.7400000000000005E-002     2.5540140630983744E-004
   8.8249999999999995E-002     2.1557265839673535E-004
   8.9099999999999985E-002     1.7819977883692283E-004
   8.9950000000000002E-002     1.4329936370869204E-004
   9.0799999999999992E-002     1.1086785823978803E-004
   9.1649999999999981E-002     8.0884186219065958E-005
   9.2499999999999999E-002     5.3310942869244739E-005
   9.3349999999999989E-002     2.8096132920781990E-005
   9.4200000000000006E-002     5.1756209841884182E-006
   9.5049999999999996E-002    -1.5525581447776152E-005
   9.5899999999999985E-002    -3.4091704787098904E-005
   9.6750000000000003E-002    -5.0614724040439563E-005
   9.7599999999999992E-002    -6.5192544248259573E-005
   9.8449999999999982E-002    -7.7927871049963564E-005
   9.9299999999999999E-002    -8.8926633177986830E-005
  0.10014999999999999         -9.8296995494918767E-005
  0.10099999999999998         -1.0614832398533860E-004
  0.10185000000000000         -1.1258986383464443E-004
  0.10269999999999999         -1.1773009898809287E-004
  0.10355000000000000         -1.2167570275190893E-004
  0.10439999999999999         -1.2453115414699317E-004
  0.10524999999999998         -1.2639788090818406E-004
  0.10610000000000000         -1.2737392936859837E-004
  0.10694999999999999         -1.2755338732761207E-004
  0.10779999999999998         -1.2702626514079774E-004
  0.10865000000000000         -1.2587809737341074E-004
  0.10949999999999999         -1.2418958962630831E-004
  0.11035000000000000         -1.2203663502246909E-004
  0.11119999999999999         -1.1949013483750605E-004
  0.11204999999999998         -1.1661571128656318E-004
  0.11290000000000000         -1.1347398045190394E-004
  0.11374999999999999         -1.1012038370050931E-004
  0.11459999999999998         -1.0660507382679866E-004
  0.11545000000000000         -1.0297338965323380E-004
  0.11629999999999999         -9.9265788156012398E-005
  0.11715000000000000         -9.5517868203169107E-005
  0.11799999999999999         -9.1760976177846933E-005
  0.11884999999999998         -8.8022084284075791E-005
  0.11970000000000000         -8.4324167772047070E-005
  0.12054999999999999         -8.0686569811447856E-005
  0.12139999999999998         -7.7125044151859500E-005
  0.12225000000000000         -7.3652312969022652E-005
  0.12309999999999999         -7.0278072108308779E-005
  0.12395000000000000         -6.7009544817113524E-005
  0.12479999999999999         -6.3851654774983022E-005
  0.12564999999999998         -6.0807228924439269E-005
  0.12650000000000000         -5.7877504589710078E-005
  0.12734999999999999         -5.5062217029085671E-005
  0.12819999999999998         -5.2360008317923343E-005
  0.12905000000000000         -4.9768655749793911E-005
  0.12989999999999999         -4.7285318151270634E-005
  0.13074999999999998         -4.4906660960324877E-005
  0.13159999999999999         -4.2629173422817910E-005
  0.13245000000000001         -4.0449308054648236E-005
  0.13329999999999997         -3.8363577178062016E-005
  0.13414999999999999         -3.6368626452064114E-005
  0.13500000000000001         -3.4461462003284094E-005
  0.13584999999999997         -3.2639451524857837E-005
  0.13669999999999999         -3.0900265854885970E-005
  0.13755000000000001         -2.9241968176802151E-005
  0.13839999999999997         -2.7662997535433817E-005
  0.13924999999999998         -2.6162095964933765E-005
  0.14010000000000000         -2.4738315639680652E-005
  0.14094999999999996         -2.3390878443148756E-005
  0.14179999999999998         -2.2119158103916687E-005
  0.14265000000000000         -2.0922578008790713E-005
  0.14350000000000002         -1.9800593242537251E-005
  0.14434999999999998         -1.8752528524943435E-005
  0.14520000000000000         -1.7777573519690306E-005
  0.14605000000000001         -1.6874695251543861E-005
  0.14689999999999998         -1.6042575502027520E-005
  0.14774999999999999         -1.5279517989915894E-005
  0.14860000000000001         -1.4583456647900917E-005
  0.14944999999999997         -1.3951874481578375E-005
  0.15029999999999999         -1.3381786325322566E-005
  0.15115000000000001         -1.2869765113313219E-005
  0.15199999999999997         -1.2411929431769551E-005
  0.15284999999999999         -1.2004014083298957E-005
  0.15370000000000000         -1.1641415056931664E-005
  0.15454999999999997         -1.1319296438230369E-005
  0.15539999999999998         -1.1032662923752914E-005
  0.15625000000000000         -1.0776463303792490E-005
  0.15709999999999996         -1.0545686159543223E-005
  0.15794999999999998         -1.0335442593708470E-005
  0.15880000000000000         -1.0141053834141026E-005
  0.15965000000000001         -9.9580655247808308E-006
  0.16049999999999998         -9.7823740969170662E-006
  0.16134999999999999         -9.6102195271727356E-006
  0.16220000000000001         -9.4382913098733812E-006
  0.16304999999999997         -9.2637199058212192E-006
  0.16389999999999999         -9.0841646434247429E-006
  0.16475000000000001         -8.8977992549782119E-006
  0.16559999999999997         -8.7033716124522067E-006
  0.16644999999999999         -8.5002224399580054E-006
  0.16730000000000000         -8.2882612587593462E-006
  0.16814999999999997         -8.0678785417638631E-006
  0.16899999999999998         -7.8399695821611483E-006
  0.16985000000000000         -7.6058474475173948E-006
  0.17069999999999996         -7.3670974962869328E-006
  0.17154999999999998         -7.1255327750573439E-006
  0.17240000000000000         -6.8830740015374299E-006
  0.17325000000000002         -6.6416741865556609E-006
  0.17409999999999998         -6.4032401255322303E-006
  0.17494999999999999         -6.1695422794860255E-006
  0.17580000000000001         -5.9421838135520301E-006
  0.17664999999999997         -5.7225157095505934E-006
  0.17749999999999999         -5.5116600911086932E-006
  0.17835000000000001         -5.3104463005228606E-006
  0.17919999999999997         -5.1193840598718632E-006
  0.18004999999999999         -4.9386812925646764E-006
  0.18090000000000001         -4.7682167070214817E-006
  0.18174999999999997         -4.6075696699453977E-006
  0.18259999999999998         -4.4560167545824095E-006
  0.18345000000000000         -4.3125725605712267E-006
  0.18429999999999996         -4.1760245549797539E-006
  0.18514999999999998         -4.0449679241420147E-006
  0.18600000000000000         -3.9178658105427335E-006
  0.18684999999999996         -3.7931169687036484E-006
  0.18769999999999998         -3.6690985600744673E-006
  0.18855000000000000         -3.5442383766702273E-006
  0.18940000000000001         -3.4170714734511751E-006
  0.19024999999999997         -3.2863071084554472E-006
  0.19109999999999999         -3.1508947620123303E-006
  0.19195000000000001         -3.0100659453656250E-006
  0.19279999999999997         -2.8633886265606333E-006
  0.19364999999999999         -2.7108119890737801E-006
  0.19450000000000001         -2.5526588978943715E-006
  0.19534999999999997         -2.3896472610579398E-006
  0.19619999999999999         -2.2228811410934460E-006
  0.19705000000000000         -2.0538026774590262E-006
  0.19789999999999996         -1.8841392161759394E-006
  0.19874999999999998         -1.7158542029301246E-006
  0.19960000000000000         -1.5510774269417134E-006
  0.20044999999999996         -1.3920309900402344E-006
  0.20129999999999998         -1.2409562582489705E-006
  0.20215000000000000         -1.1000784941231755E-006
  0.20300000000000001         -9.7153009484018960E-007
  0.20384999999999998         -8.5729228372645420E-007
  0.20469999999999999         -7.5917083066738873E-007
  0.20555000000000001         -6.7874264417064682E-007
  0.20639999999999997         -6.1729630430591870E-007
  0.20724999999999999         -5.7580905474670314E-007
  0.20810000000000001         -5.5488257704098960E-007
  0.20894999999999997         -5.5471807720151622E-007
  0.20979999999999999         -5.7509112513316734E-007
  0.21065000000000000         -6.1531274538278036E-007
  0.21149999999999997         -6.7426192196002723E-007
  0.21234999999999998         -7.5040158486566987E-007
  0.21320000000000000         -8.4180784953907646E-007
  0.21404999999999996         -9.4623088810617681E-007
  0.21489999999999998         -1.0611649260991729E-006
  0.21575000000000000         -1.1839130541107203E-006
  0.21659999999999996         -1.3116702404989743E-006
  0.21744999999999998         -1.4415918676693749E-006
  0.21829999999999999         -1.5708489431916487E-006
  0.21915000000000001         -1.6967110056438113E-006
  0.21999999999999997         -1.8165818847525401E-006
  0.22084999999999999         -1.9280617717159874E-006
  0.22170000000000001         -2.0289803694407686E-006
  0.22254999999999997         -2.1174627160347109E-006
  0.22339999999999999         -2.1919525085217922E-006
  0.22425000000000000         -2.2512388287847518E-006
  0.22509999999999997         -2.2944950517012117E-006
  0.22594999999999998         -2.3212799663548273E-006
  0.22680000000000000         -2.3315433383528895E-006
  0.22764999999999996         -2.3256031284734903E-006
  0.22849999999999998         -2.3041323591056232E-006
  0.22935000000000000         -2.2681145123577576E-006
  0.23019999999999996         -2.2187935602669951E-006
  0.23104999999999998         -2.1576456288473919E-006
  0.23190000000000000         -2.0863083060020275E-006
  0.23275000000000001         -2.0065436551018805E-006
  0.23359999999999997         -1.9201804107609428E-006
  0.23444999999999999         -1.8290641147523601E-006
  0.23530000000000001         -1.7350013722945765E-006
  0.23614999999999997         -1.6397234055505395E-006
  0.23699999999999999         -1.5448154093288861E-006
  0.23785000000000001         -1.4516914650431664E-006
  0.23869999999999997         -1.3615379362490363E-006
  0.23954999999999999         -1.2753007497889108E-006
  0.24040000000000000         -1.1936502507665956E-006
  0.24124999999999996         -1.1169772047439119E-006
  0.24209999999999998         -1.0454022683981495E-006
  0.24295000000000000         -9.7879030048691691E-007
  0.24379999999999996         -9.1677592055431557E-007
  0.24464999999999998         -8.5880460490404749E-007
  0.24550000000000000         -8.0415608875005045E-007
  0.24634999999999996         -7.5198779733932092E-007
  0.24719999999999998         -7.0138775149220937E-007
  0.24804999999999999         -6.5140029097786504E-007
  0.24890000000000001         -6.0106199426436337E-007
  0.24974999999999997         -5.4946935255833531E-007
  0.25059999999999999         -4.9579974759337709E-007
  0.25145000000000001         -4.3935083360983612E-007
  0.25229999999999997         -3.7960478639192779E-007
  0.25314999999999999         -3.1623658962463952E-007
  0.25400000000000000         -2.4915994034221972E-007
  0.25484999999999997         -1.7854734031678480E-007
  0.25569999999999998         -1.0481804835418955E-007
  0.25655000000000000         -2.8660379915719370E-008
  0.25739999999999996          4.9010637840355199E-008
  0.25824999999999998          1.2707151050778660E-007
  0.25910000000000000          2.0422671761529640E-007
  0.25994999999999996          2.7904101107040109E-007
  0.26079999999999998          3.4999482559198911E-007
  0.26164999999999999          4.1552483158947236E-007
  0.26249999999999996          4.7405710201496302E-007
  0.26334999999999997          5.2405403219068543E-007
  0.26419999999999999          5.6405637825992156E-007
  0.26505000000000001          5.9272062628893948E-007
  0.26589999999999997          6.0887096546649115E-007
  0.26674999999999999          6.1153310872217597E-007
  0.26760000000000000          5.9997551970185351E-007
  0.26844999999999997          5.7374774542592076E-007
  0.26929999999999998          5.3270478651213644E-007
  0.27015000000000000          4.7702809632496557E-007
  0.27099999999999996          4.0723141491955212E-007
  0.27184999999999998          3.2414673460458757E-007
  0.27270000000000000          2.2891290056168789E-007
  0.27354999999999996          1.2294578138489378E-007
  0.27439999999999998          7.8991654834365734E-009
  0.27524999999999999         -1.1437469680997664E-007
  0.27609999999999996         -2.4186567034506105E-007
  0.27694999999999997         -3.7245465336661579E-007
  0.27779999999999999         -5.0395290327216958E-007
  0.27865000000000001         -6.3415129314277177E-007
  0.27949999999999997         -7.6086439834886938E-007
  0.28034999999999999         -8.8197396602061391E-007
  0.28120000000000001         -9.9547767672946642E-007
  0.28204999999999997         -1.0995371875224829E-006
  0.28289999999999998         -1.1925142078452438E-006
  0.28375000000000000         -1.2730197523434117E-006
  0.28459999999999996         -1.3399362251678947E-006
  0.28544999999999998         -1.3924478891974846E-006
  0.28630000000000000         -1.4300490670916016E-006
  0.28714999999999996         -1.4525459041311249E-006
  0.28799999999999998         -1.4600498207278445E-006
  0.28885000000000000         -1.4529606084700096E-006
  0.28969999999999996         -1.4319493696302951E-006
  0.29054999999999997         -1.3979283427231316E-006
  0.29139999999999999         -1.3520224636854561E-006
  0.29224999999999995         -1.2955306295654629E-006
  0.29309999999999997         -1.2299031698965213E-006
  0.29394999999999999         -1.1566868928103913E-006
  0.29480000000000001         -1.0774995798830252E-006
  0.29564999999999997         -9.9397606400354497E-007
  0.29649999999999999         -9.0772126368820967E-007
  0.29735000000000000         -8.2026893843764984E-007
  0.29819999999999997         -7.3303697241279990E-007
  0.29904999999999998         -6.4728820682450920E-007
  0.29990000000000000         -5.6409782129288722E-007
  0.30074999999999996         -4.8434079594206616E-007
  0.30159999999999998         -4.0867118981719536E-007
  0.30245000000000000         -3.3753059227903410E-007
  0.30329999999999996         -2.7115203707151967E-007
  0.30414999999999998         -2.0958109950154697E-007
  0.30499999999999999         -1.5268722209034735E-007
  0.30584999999999996         -1.0018949827949431E-007
  0.30669999999999997         -5.1682292703052301E-008
  0.30754999999999999         -6.6554207821406718E-009
  0.30840000000000001          3.5473566961210042E-008
  0.30924999999999997          7.5334206826571329E-008
  0.31009999999999999          1.1357641243408019E-007
  0.31095000000000000          1.5083481446531353E-007
  0.31179999999999997          1.8769921077581559E-007
  0.31264999999999998          2.2467691992206632E-007
  0.31350000000000000          2.6216844462818297E-007
  0.31434999999999996          3.0043446228342091E-007
  0.31519999999999998          3.3958664501428319E-007
  0.31605000000000000          3.7956158755587165E-007
  0.31689999999999996          4.2012986411544045E-007
  0.31774999999999998          4.6089149498480096E-007
  0.31859999999999999          5.0128696992849171E-007
  0.31944999999999996          5.4061307678516212E-007
  0.32029999999999997          5.7804477527510880E-007
  0.32114999999999999          6.1265596121076900E-007
  0.32199999999999995          6.4344425030145422E-007
  0.32284999999999997          6.6935803202422219E-007
  0.32369999999999999          6.8932856831552696E-007
  0.32455000000000001          7.0230711740781674E-007
  0.32539999999999997          7.0729249639712576E-007
  0.32624999999999998          7.0337708979204327E-007
  0.32710000000000000          6.8978089032496967E-007
  0.32794999999999996          6.6588860919570265E-007
  0.32879999999999998          6.3128006111931294E-007
  0.32965000000000000          5.8575614542648365E-007
  0.33049999999999996          5.2935283622886224E-007
  0.33134999999999998          4.6235232354124946E-007
  0.33220000000000000          3.8527709512931124E-007
  0.33304999999999996          2.9888635024900211E-007
  0.33389999999999997          2.0415726120307211E-007
  0.33474999999999999          1.0226998847562897E-007
  0.33559999999999995         -5.4207261041665217E-009
  0.33644999999999997         -1.1740101146563300E-007
  0.33729999999999999         -2.3203144778724714E-007
  0.33815000000000001         -3.4757085651384070E-007
  0.33899999999999997         -4.6221404233236594E-007
  0.33984999999999999         -5.7412459219829273E-007
  0.34070000000000000         -6.8147833241712489E-007
  0.34154999999999996         -7.8250783296517515E-007
  0.34239999999999998         -8.7554927310358391E-007