 -0.12000000000000000          0.0000000000000000
 -0.11914999999999999          0.0000000000000000
 -0.11830000000000000          0.0000000000000000
 -0.11745000000000000          0.0000000000000000
 -0.11660000000000000          0.0000000000000000
 -0.11574999999999999          0.0000000000000000
 -0.11490000000000000          0.0000000000000000
 -0.11405000000000000          0.0000000000000000
 -0.11320000000000000          0.0000000000000000
 -0.11234999999999999          0.0000000000000000
 -0.11150000000000000          0.0000000000000000
 -0.11065000000000000          0.0000000000000000
 -0.10979999999999999         -1.6036501189500475E-044
 -0.10894999999999999         -2.9644738284036263E-043
 -0.10810000000000000         -2.7151170933063395E-042
 -0.10725000000000000         -1.6292878131160921E-041
 -0.10639999999999999         -7.0782405675071343E-041
 -0.10554999999999999         -2.2939440402197488E-040
 -0.10470000000000000         -5.3329046259970656E-040
 -0.10385000000000000         -6.7017656308233486E-040
 -0.10299999999999999          1.0163669937370176E-039
 -0.10214999999999999          9.4585373097668851E-039
 -0.10130000000000000          3.4883843060174542E-038
 -0.10045000000000000          9.0920613706858421E-038
  -9.9599999999999994E-002     1.7965037546872783E-037
  -9.8750000000000004E-002     2.5095845082473900E-037
  -9.7900000000000001E-002     1.3169478833129693E-037
  -9.7049999999999997E-002    -5.4421195320260773E-037
  -9.6199999999999994E-002    -2.2993083226206553E-036
  -9.5349999999999990E-002    -5.4700511978175011E-036
  -9.4500000000000001E-002    -9.3258988473102086E-036
  -9.3649999999999997E-002    -1.0610949398438989E-035
  -9.2799999999999994E-002    -2.0850395164110107E-036
  -9.1950000000000004E-002     2.7254310022987433E-035
  -9.1100000000000000E-002     8.7351841224468268E-035
  -9.0249999999999997E-002     1.7447432204251861E-034
  -8.9399999999999993E-002     2.5009166181292802E-034
  -8.8549999999999990E-002     2.1778399053694629E-034
  -8.7700000000000000E-002    -8.3011463147772343E-035
  -8.6849999999999997E-002    -8.3402514780282907E-034
  -8.5999999999999993E-002    -2.1088983931327542E-033
  -8.5150000000000003E-002    -3.6412154864480984E-033
  -8.4300000000000000E-002    -4.5362727679480677E-033
  -8.3449999999999996E-002    -3.0827427435088322E-033
  -8.2600000000000007E-002     3.0495675713711494E-033
  -8.1749999999999989E-002     1.5863504504583925E-032
  -8.0900000000000000E-002     3.5077793253604491E-032
  -8.0049999999999996E-002     5.5310563167402896E-032
  -7.9199999999999993E-002     6.3349639168422090E-032
  -7.8350000000000003E-002     3.7517352262153569E-032
  -7.7499999999999999E-002    -4.7957876711448970E-032
  -7.6649999999999996E-002    -2.1067002842952875E-031
  -7.5800000000000006E-002    -4.3888015082700014E-031
  -7.4949999999999989E-002    -6.6505468980824463E-031
  -7.4099999999999999E-002    -7.4476991958318714E-031
  -7.3249999999999996E-002    -4.5953692084436455E-031
  -7.2399999999999992E-002     4.3312067991286419E-031
  -7.1550000000000002E-002     2.0830764810842115E-030
  -7.0699999999999999E-002     4.3641598349662486E-030
  -6.9849999999999995E-002     6.6605415337258411E-030
  -6.9000000000000006E-002     7.7109665865312305E-030
  -6.8149999999999988E-002     5.6499150641823666E-030
  -6.7299999999999999E-002    -1.5914247471205699E-030
  -6.6449999999999995E-002    -1.5400583835119017E-029
  -6.5599999999999992E-002    -3.5127427734610509E-029
  -6.4750000000000002E-002    -5.6512802693695247E-029
  -6.3899999999999998E-002    -7.0484574617696045E-029
  -6.3049999999999995E-002    -6.3218661897684255E-029
  -6.2199999999999998E-002    -1.8512351534019292E-029
  -6.1350000000000002E-002     7.6696687366420824E-029
  -6.0499999999999998E-002     2.2359277404151844E-028
  -5.9650000000000002E-002     4.0083555864784216E-028
  -5.8799999999999998E-002     5.5518074465339363E-028
  -5.7950000000000002E-002     5.9844972341489917E-028
  -5.7099999999999998E-002     4.1709953878611063E-028
  -5.6249999999999994E-002    -9.9933152261856140E-029
  -5.5400000000000005E-002    -1.0127636160033242E-027
  -5.4550000000000001E-002    -2.2657637431287186E-027
  -5.3699999999999998E-002    -3.6203791517805160E-027
  -5.2849999999999994E-002    -4.6104031308666821E-027
  -5.2000000000000005E-002    -4.5534227155107505E-027
  -5.1150000000000001E-002    -2.6542402180111918E-027
  -5.0299999999999997E-002     1.7738105927896650E-027
  -4.9449999999999994E-002     8.9698227201271083E-027
  -4.8600000000000004E-002     1.8312011585664962E-026
  -4.7750000000000001E-002     2.7929668769674024E-026
  -4.6899999999999997E-002     3.4497025422854665E-026
  -4.6049999999999994E-002     3.3404764909376927E-026
  -4.5200000000000004E-002     1.9501100393278972E-026
  -4.4350000000000001E-002    -1.1477645818597118E-026
  -4.3499999999999997E-002    -6.0824870321472945E-026
  -4.2649999999999993E-002    -1.2441160991293549E-025
  -4.1800000000000004E-002    -1.9044818775062640E-025
  -4.0950000000000000E-002    -2.3833879831300518E-025
  -4.0099999999999997E-002    -2.3970022172755228E-025
  -3.9249999999999993E-002    -1.6257797017140256E-025
  -3.8400000000000004E-002     2.0497026264091956E-026
  -3.7550000000000000E-002     3.2079567328590561E-025
  -3.6699999999999997E-002     7.1947157083461576E-025
  -3.5850000000000007E-002     1.1544474355269620E-024
  -3.5000000000000003E-002     1.5126731331579894E-024
  -3.4150000000000000E-002     1.6333817336485776E-024
  -3.3299999999999996E-002     1.3279386559287233E-024
  -3.2450000000000007E-002     4.2013480394270364E-025
  -3.1600000000000003E-002    -1.1931231337473215E-024
  -3.0750000000000000E-002    -3.4668720708823952E-024
  -2.9899999999999996E-002    -6.1327917825470668E-024
  -2.9050000000000006E-002    -8.6454217043048526E-024
  -2.8200000000000003E-002    -1.0177883535489715E-023
  -2.7349999999999999E-002    -9.6964406154316438E-024
  -2.6499999999999996E-002    -6.1369341579448736E-024
  -2.5650000000000006E-002     1.3101846686433350E-024
  -2.4800000000000003E-002     1.2826400569284182E-023
  -2.3949999999999999E-002     2.7559210975977493E-023
  -2.3099999999999996E-002     4.3278623339793738E-023
  -2.2250000000000006E-002     5.6224331971048003E-023
  -2.1400000000000002E-002     6.1287261549293105E-023
  -2.0549999999999999E-002     5.2653722732834324E-023
  -1.9699999999999995E-002     2.4982482411207929E-023
  -1.8850000000000006E-002    -2.4921106026365518E-023
  -1.8000000000000002E-002    -9.6118725224635334E-023
  -1.7149999999999999E-002    -1.8160094726316609E-022
  -1.6299999999999995E-002    -2.6692425229039416E-022
  -1.5450000000000005E-002    -3.3006260785744486E-022
  -1.4600000000000002E-002    -3.4311600390974701E-022
  -1.3749999999999998E-002    -2.7635960426739881E-022
  -1.2899999999999995E-002    -1.0476276809510286E-022
  -1.2050000000000005E-002     1.8344540625767702E-022
  -1.1200000000000002E-002     5.7729034932342844E-022
  -1.0349999999999998E-002     1.0345225266705005E-021
  -9.5000000000000084E-003     1.4765568937840956E-021
  -8.6500000000000049E-003     1.7897109308705596E-021
  -7.8000000000000014E-003     1.8353572343430635E-021
  -6.9499999999999978E-003     1.4706856972669816E-021
  -6.1000000000000082E-003     5.8004596229014889E-022
  -5.2500000000000047E-003    -8.8562072413159695E-022
  -4.4000000000000011E-003    -2.8666852078587510E-021
  -3.5499999999999976E-003    -5.1584543587031721E-021
  -2.7000000000000079E-003    -7.3912027157622720E-021
  -1.8500000000000044E-003    -9.0381735294617566E-021
  -1.0000000000000009E-003    -9.4618040451174547E-021
  -1.4999999999999736E-004    -8.0043120329787114E-021
   6.9999999999999230E-004    -4.1216852383699366E-021
   1.5499999999999958E-003     2.4496206833630463E-021
   2.3999999999999994E-003     1.1515304805318129E-020
   3.2500000000000029E-003     2.2268281708555752E-020
   4.0999999999999925E-003     3.3197844536524199E-020
   4.9499999999999961E-003     4.2107600469273063E-020
   5.7999999999999996E-003     4.6281968512016045E-020
   6.6499999999999893E-003     4.2826007045510692E-020
   7.5000000000000067E-003     2.9177718178204378E-020
   8.3499999999999963E-003     3.7569126795268885E-021
   9.1999999999999860E-003    -3.3325966846230981E-020
   1.0050000000000003E-002    -7.9618197227565407E-020
   1.0899999999999993E-002    -1.2987928150924508E-019
   1.1750000000000010E-002    -1.7600538146003999E-019
   1.2600000000000000E-002    -2.0747495082928012E-019
   1.3449999999999990E-002    -2.1242165331196079E-019
   1.4300000000000007E-002    -1.7935962476100570E-019
   1.5149999999999997E-002    -9.9471356416986997E-020
   1.5999999999999986E-002     3.0765848099551028E-020
   1.6850000000000004E-002     2.0698079038681906E-019
   1.7699999999999994E-002     4.1481990813961924E-019
   1.8549999999999983E-002     6.2892345968545610E-019
   1.9400000000000001E-002     8.1351242688965706E-019
   2.0249999999999990E-002     9.2502499418446561E-019
   2.1100000000000008E-002     9.1702006699299517E-019
   2.1949999999999997E-002     7.4723901196264132E-019
   2.2799999999999987E-002     3.8630517382827234E-019
   2.3650000000000004E-002    -1.7289964716279642E-019
   2.4499999999999994E-002    -9.0656347522196328E-019
   2.5349999999999984E-002    -1.7536513157858354E-018
   2.6200000000000001E-002    -2.6137813451266175E-018
   2.7049999999999991E-002    -3.3509003694605810E-018
   2.7900000000000008E-002    -3.8039056968029208E-018
   2.8749999999999998E-002    -3.8045777149791459E-018
   2.9599999999999987E-002    -3.2021051059390175E-018
   3.0450000000000005E-002    -1.8922328665655629E-018
   3.1299999999999994E-002     1.5221086302709571E-019
   3.2149999999999984E-002     2.8537750391027882E-018
   3.3000000000000002E-002     6.0108796591705419E-018
   3.3849999999999991E-002     9.2915651626988432E-018
   3.4700000000000009E-002     1.2245016140323746E-017
   3.5549999999999998E-002     1.4333944440749262E-017
   3.6399999999999988E-002     1.4988570320078291E-017
   3.7250000000000005E-002     1.3679987060916563E-017
   3.8099999999999995E-002     1.0007294357674382E-017
   3.8949999999999985E-002     3.7896342790495217E-018
   3.9800000000000002E-002    -4.8487052692211926E-018
   4.0649999999999992E-002    -1.5413622125396369E-017
   4.1500000000000009E-002    -2.7010852224809165E-017
   4.2349999999999999E-002    -3.8362345836860471E-017
   4.3199999999999988E-002    -4.7878152546037153E-017
   4.4050000000000006E-002    -5.3787097625311781E-017
   4.4899999999999995E-002    -5.4322727534236356E-017
   4.5749999999999985E-002    -4.7952645233617638E-017
   4.6600000000000003E-002    -3.3631754311455660E-017
   4.7449999999999992E-002    -1.1052403882063018E-017
   4.8299999999999982E-002     1.9140193943508970E-017
   4.9149999999999999E-002     5.5201272082627902E-017
   4.9999999999999989E-002     9.4240654679972242E-017
   5.0850000000000006E-002     1.3230374144078898E-016
   5.1699999999999996E-002     1.6459574978891281E-016
   5.2549999999999986E-002     1.8585129353673670E-016
   5.3400000000000003E-002     1.9083583542786013E-016
   5.4249999999999993E-002     1.7494773536966057E-016
   5.5099999999999982E-002     1.3487342290441631E-016
   5.5950000000000000E-002     6.9234084559352588E-017
   5.6799999999999989E-002    -2.0846980222784714E-017
   5.7650000000000007E-002    -1.3133097761352453E-016
   5.8499999999999996E-002    -2.5507484804646588E-016
   5.9349999999999986E-002    -3.8192692243148949E-016
   6.0200000000000004E-002    -4.9914743198330814E-016
   6.1049999999999993E-002    -5.9217026120100342E-016
   6.1899999999999983E-002    -6.4569225089408187E-016
   6.2750000000000000E-002    -6.4504234466294862E-016
   6.3599999999999990E-002    -5.7775304160105830E-016
   6.4450000000000007E-002    -4.3522214864591888E-016
   6.5299999999999997E-002    -2.1433185623921076E-016
   6.6149999999999987E-002     8.1129544279135448E-017
   6.7000000000000004E-002     4.3940358022970002E-016
   6.7849999999999994E-002     8.4021265503422908E-016
   6.8699999999999983E-002     1.2548664936400764E-015
   6.9550000000000001E-002     1.6471395025613409E-015
   7.0399999999999990E-002     1.9749800783400288E-015
   7.1249999999999980E-002     2.1930741822991201E-015
   7.2099999999999997E-002     2.2562026413934630E-015
   7.2949999999999987E-002     2.1232665619943841E-015
   7.3800000000000004E-002     1.7617784697886045E-015
   7.4649999999999994E-002     1.1525293608483370E-015
   7.5499999999999984E-002     2.9408191732969626E-016
   7.6350000000000001E-002    -7.9332518227566984E-016
   7.7199999999999991E-002    -2.0649040366686618E-015
   7.8049999999999981E-002    -3.4499267691400172E-015
   7.8899999999999998E-002    -4.8522435917458851E-015
   7.9749999999999988E-002    -6.1530528441226979E-015
   8.0600000000000005E-002    -7.2161613157788919E-015
   8.1449999999999995E-002    -7.8958005487054904E-015
   8.2299999999999984E-002    -8.0468805773104365E-015
   8.3150000000000002E-002    -7.5373219915127792E-015
   8.3999999999999991E-002    -6.2618715215241572E-015
   8.4849999999999981E-002    -4.1565439863732881E-015
   8.5699999999999998E-002    -1.2126524492349689E-015
   8.6549999999999988E-002     2.5108285049783399E-015
   8.7400000000000005E-002     6.8779109328887720E-015
   8.8249999999999995E-002     1.1670591403376572E-014
   8.9099999999999985E-002     1.6589469758744739E-014
   8.9950000000000002E-002     2.1261028771645304E-014
   9.0799999999999992E-002     2.5252267379382466E-014
   9.1649999999999981E-002     2.8092960316181686E-014
   9.2499999999999999E-002     2.9305210269280864E-014
   9.3349999999999989E-002     2.8439388295911722E-014
   9.4200000000000006E-002     2.5114815377356793E-014
   9.5049999999999996E-002     1.9063015694345495E-014
   9.5899999999999985E-002     1.0170666652536293E-014
   9.6750000000000003E-002    -1.4810161631060424E-015
   9.7599999999999992E-002    -1.5584129302161236E-014
   9.8449999999999982E-002    -3.1582693145813640E-014
   9.9299999999999999E-002    -4.8665630720870978E-014
  0.10014999999999999         -6.5777088418412612E-014
  0.10099999999999998         -8.1646415342969187E-014
  0.10185000000000000         -9.4839104438185147E-014
  0.10269999999999999         -1.0382867264913395E-013
  0.10355000000000000         -1.0708803044329559E-013
  0.10439999999999999         -1.0319755586582104E-013
  0.10524999999999998         -9.0964959089259392E-014
  0.10610000000000000         -6.9551228157467211E-014
  0.10694999999999999         -3.8594837041175349E-014
  0.10779999999999998          1.6740445598039190E-015
  0.10865000000000000          5.0338643676851001E-014
  0.10949999999999999          1.0572968990702738E-013
  0.11035000000000000          1.6539702447622062E-013
  0.11119999999999999          2.2612759313064265E-013
  0.11204999999999998          2.8401585941787684E-013
  0.11290000000000000          3.3459127556777111E-013
  0.11374999999999999          3.7300422906307324E-013
  0.11459999999999998          3.9426875007826104E-013
  0.11545000000000000          3.9355666306100408E-013
  0.11629999999999999          3.6653356106668824E-013
  0.11715000000000000          3.0972311894346000E-013
  0.11799999999999999          2.2088318763272890E-013
  0.11884999999999998          9.9371890392308591E-014
  0.11970000000000000         -5.3519155680227150E-014
  0.12054999999999999         -2.3428939775676783E-013
  0.12139999999999998         -4.3703818277977339E-013
  0.12225000000000000         -6.5338384013477662E-013
  0.12309999999999999         -8.7251573403834866E-013
  0.12395000000000000         -1.0813986547084839E-012
  0.12479999999999999         -1.2651444493221571E-012
  0.12564999999999998         -1.4075573609203997E-012
  0.12650000000000000         -1.4918513457381517E-012
  0.12734999999999999         -1.5015290619778118E-012
  0.12819999999999998         -1.4213987543169339E-012
  0.12905000000000000         -1.2386943672910591E-012
  0.12989999999999999         -9.4425698723392990E-013
  0.13074999999999998         -5.3371722472556212E-013
  0.13159999999999999         -8.6161798497669298E-015
  0.13245000000000001          6.2260847254377910E-013
  0.13329999999999997          1.3438513499625846E-012
  0.13414999999999999          2.1308597460027066E-012
  0.13500000000000001          2.9511210025294204E-012
  0.13584999999999997          3.7641833435383330E-012
  0.13669999999999999          4.5224714739326554E-012
  0.13755000000000001          5.1726240742430192E-012
  0.13839999999999997          5.6573805452679540E-012
  0.13924999999999998          5.9179858475027970E-012
  0.14010000000000000          5.8970990250640526E-012
  0.14094999999999996          5.5420913614795930E-012
  0.14179999999999998          4.8086636252342213E-012
  0.14265000000000000          3.6646055590693451E-012
  0.14350000000000002          2.0935512229237678E-012
  0.14434999999999998          9.8502879158404231E-014
  0.14520000000000000         -2.2950720592504018E-012
  0.14605000000000001         -5.0368088844527147E-012
  0.14689999999999998         -8.0499174588409515E-012
  0.14774999999999999         -1.1230766630245186E-011
  0.14860000000000001         -1.4449772719857020E-011
  0.14944999999999997         -1.7553758735847137E-011
  0.15029999999999999         -2.0369875675010685E-011
  0.15115000000000001         -2.2711148505173584E-011
  0.15199999999999997         -2.4383582787603029E-011
  0.15284999999999999         -2.5194772684884090E-011
  0.15370000000000000         -2.4963749449682451E-011
  0.15454999999999997         -2.3531844139646227E-011
  0.15539999999999998         -2.0774171923738592E-011
  0.15625000000000000         -1.6611254907781568E-011
  0.15709999999999996         -1.1020392114567495E-011
  0.15794999999999998         -4.0460656924197349E-012
  0.15880000000000000          4.1910628289942073E-012
  0.15965000000000001          1.3487332304938428E-011
  0.16049999999999998          2.3551749372156881E-011
  0.16134999999999999          3.4004960506724148E-011
  0.16220000000000001          4.4381813272046229E-011
  0.16304999999999997          5.4137917444836246E-011
  0.16389999999999999          6.2660426383916230E-011
  0.16475000000000001          6.9283205965391663E-011
  0.16559999999999997          7.3306251289658505E-011
  0.16644999999999999          7.4019254845817162E-011
  0.16730000000000000          7.0728779781576553E-011
  0.16814999999999997          6.2788757083543378E-011
  0.16899999999999998          4.9633435080127848E-011
  0.16985000000000000          3.0812140498242092E-011
  0.17069999999999996          6.0249225063310954E-012
  0.17154999999999998         -2.4841927989459473E-011
  0.17240000000000000         -6.1681138995457569E-011
  0.17325000000000002         -1.0413158710610212E-010
  0.17409999999999998         -1.5154813232930734E-010
  0.17494999999999999         -2.0297437454179033E-010
  0.17580000000000001         -2.5711930512814733E-010
  0.17664999999999997         -3.1233746784011425E-010
  0.17749999999999999         -3.6661293497429421E-010
  0.17835000000000001         -4.1754633012949555E-010
  0.17919999999999997         -4.6234393820298233E-010
  0.18004999999999999         -4.9780785958720259E-010
  0.18090000000000001         -5.2032504043175037E-010
  0.18174999999999997         -5.2585300293656161E-010
  0.18259999999999998         -5.0990066635087014E-010
  0.18345000000000000         -4.6749863701705874E-010
  0.18429999999999996         -3.9315823998948729E-010
  0.18514999999999998         -2.8081391258571943E-010
  0.18600000000000000         -1.2374463534565779E-010
  0.18684999999999996          8.5529962469238085E-011
  0.18769999999999998          3.5538424624094334E-010
  0.18855000000000000          6.9525627141512101E-010
  0.18940000000000001          1.1158590975608508E-009
  0.19024999999999997          1.6294381732441865E-009
  0.19109999999999999          2.2500829445275487E-009
  0.19195000000000001          2.9940934241698653E-009
  0.19279999999999997          3.8804143501409230E-009
  0.19364999999999999          4.9311406576134835E-009
  0.19450000000000001          6.1720965183950972E-009
  0.19534999999999997          7.6335047785076871E-009
  0.19619999999999999          9.3507342797849699E-009
  0.19705000000000000          1.1365168957928516E-008
  0.19789999999999996          1.3725158678546167E-008
  0.19874999999999998          1.6487091731076890E-008
  0.19960000000000000          1.9716607169494301E-008
  0.20044999999999996          2.3489914460051916E-008
  0.20129999999999998          2.7895250752840316E-008
  0.20215000000000000          3.3034543294615431E-008
  0.20300000000000001          3.9025150944622037E-008
  0.20384999999999998          4.6001851246273088E-008
  0.20469999999999999          5.4118967820613337E-008
  0.20555000000000001          6.3552690372885927E-008
  0.20639999999999997          7.4503749925932166E-008
  0.20724999999999999          8.7200045696229509E-008
  0.20810000000000001          1.0189975243630100E-007
  0.20894999999999997          1.1889462223101276E-007
  0.20979999999999999          1.3851333551160842E-007
  0.21065000000000000          1.6112549122831608E-007
  0.21149999999999997          1.8714563288817182E-007
  0.21234999999999998          2.1703740861486581E-007
  0.21320000000000000          2.5131850850568565E-007
  0.21404999999999996          2.9056524239092856E-007
  0.21489999999999998          3.3541777002579335E-007
  0.21575000000000000          3.8658541126743969E-007
  0.21659999999999996          4.4485229998068574E-007
  0.21744999999999998          5.1108283794749811E-007
  0.21829999999999999          5.8622794646769331E-007
  0.21915000000000001          6.7133065624671017E-007
  0.21999999999999997          7.6753182296936281E-007
  0.22084999999999999          8.7607644084672701E-007
  0.22170000000000001          9.9831828377621948E-007
  0.22254999999999997          1.1357258903719371E-006
  0.22339999999999999          1.2898858165337421E-006
  0.22425000000000000          1.4625081932331828E-006
  0.22509999999999997          1.6554293053980997E-006
  0.22594999999999998          1.8706136220491872E-006
  0.22680000000000000          2.1101556423454441E-006
  0.22764999999999996          2.3762779889969749E-006
  0.22849999999999998          2.6713305992465034E-006
  0.22935000000000000          2.9977862322793705E-006
  0.23019999999999996          3.3582366147542328E-006
  0.23104999999999998          3.7553777029012044E-006
  0.23190000000000000          4.1920078881234157E-006
  0.23275000000000001          4.6710063356330272E-006
  0.23359999999999997          5.1953238590901644E-006
  0.23444999999999999          5.7679541800062078E-006
  0.23530000000000001          6.3919138630649782E-006
  0.23614999999999997          7.0702202018984051E-006
  0.23699999999999999          7.8058509024988796E-006
  0.23785000000000001          8.6017134746091570E-006
  0.23869999999999997          9.4606086360490585E-006
  0.23954999999999999          1.0385173479965646E-005
  0.24040000000000000          1.1377866195888192E-005
  0.24124999999999996          1.2440876240492773E-005
  0.24209999999999998          1.3576082432683446E-005
  0.24295000000000000          1.4785009862544981E-005
  0.24379999999999996          1.6068742682744255E-005
  0.24464999999999998          1.7427891121004476E-005
  0.24550000000000000          1.8862481447956765E-005
  0.24634999999999996          2.0371926290354426E-005
  0.24719999999999998          2.1954925982151857E-005
  0.24804999999999999          2.3609419413405421E-005
  0.24890000000000001          2.5332493971566261E-005
  0.24974999999999997          2.7120310926354136E-005
  0.25059999999999999          2.8968087891741626E-005
  0.25145000000000001          3.0869966581992558E-005
  0.25229999999999997          3.2818997441080695E-005
  0.25314999999999999          3.4807118183941841E-005
  0.25400000000000000          3.6824992513701852E-005
  0.25484999999999997          3.8862127979068662E-005
  0.25569999999999998          4.0906758863657925E-005
  0.25655000000000000          4.2945809108269387E-005
  0.25739999999999996          4.4964972572906337E-005
  0.25824999999999998          4.6948686639252989E-005
  0.25910000000000000          4.8880091780860431E-005
  0.25994999999999996          5.0741271427779877E-005
  0.26079999999999998          5.2513062400347893E-005
  0.26164999999999999          5.4175334215414833E-005
  0.26249999999999996          5.5707055770398933E-005
  0.26334999999999997          5.7086307193298978E-005
  0.26419999999999999          5.8290555526600367E-005
  0.26505000000000001          5.9296816630680866E-005
  0.26589999999999997          6.0081653859490494E-005
  0.26674999999999999          6.0621622298043202E-005
  0.26760000000000000          6.0893342862810783E-005
  0.26844999999999997          6.0873726398422124E-005
  0.26929999999999998          6.0540429737133980E-005
  0.27015000000000000          5.9871738762538553E-005
  0.27099999999999996          5.8847249033641603E-005
  0.27184999999999998          5.7447915535023120E-005
  0.27270000000000000          5.5656293216144599E-005
  0.27354999999999996          5.3457163245097934E-005
  0.27439999999999998          5.0837514802004134E-005
  0.27524999999999999          4.7786743306290894E-005
  0.27609999999999996          4.4297186841577027E-005
  0.27694999999999997          4.0364455169605493E-005
  0.27779999999999999          3.5987528940281562E-005
  0.27865000000000001          3.1168873622464806E-005
  0.27949999999999997          2.5914718635801677E-005
  0.28034999999999999          2.0235382247870057E-005
  0.28120000000000001          1.4145312366293561E-005
  0.28204999999999997          7.6633124375984551E-006
  0.28289999999999998          8.1222326728248998E-007
  0.28375000000000000         -6.3806204388901996E-006
  0.28459999999999996         -1.3883742691176563E-005
  0.28544999999999998         -2.1661272552901033E-005
  0.28630000000000000         -2.9673411330486248E-005
  0.28714999999999996         -3.7876427187854177E-005
  0.28799999999999998         -4.6222828387976920E-005
  0.28885000000000000         -5.4661686355942178E-005
  0.28969999999999996         -6.3139207098875300E-005
  0.29054999999999997         -7.1598629109065543E-005
  0.29139999999999999         -7.9981149038439446E-005
  0.29224999999999995         -8.8226053245943318E-005
  0.29309999999999997         -9.6271299564377536E-005
  0.29394999999999999         -1.0405421015487999E-004
  0.29480000000000001         -1.1151170799188953E-004
  0.29564999999999997         -1.1858139473593995E-004
  0.29649999999999999         -1.2520188264452989E-004
  0.29735000000000000         -1.3131334769976680E-004
  0.29819999999999997         -1.3685825536542988E-004
  0.29904999999999998         -1.4178214067403323E-004
  0.29990000000000000         -1.4603396557144919E-004
  0.30074999999999996         -1.4956688907805920E-004
  0.30159999999999998         -1.5233877236803147E-004
  0.30245000000000000         -1.5431277132241906E-004
  0.30329999999999996         -1.5545775193763757E-004
  0.30414999999999998         -1.5574875637718109E-004
  0.30499999999999999         -1.5516749457980625E-004
  0.30584999999999996         -1.5370254483192483E-004
  0.30669999999999997         -1.5134970888505656E-004
  0.30754999999999999         -1.4811213348064304E-004
  0.30840000000000001         -1.4400056781184201E-004
  0.30924999999999997         -1.3903334481328667E-004
  0.31009999999999999         -1.3323626400779751E-004
  0.31095000000000000         -1.2664245689149954E-004
  0.31179999999999997         -1.1929242453404400E-004
  0.31264999999999998         -1.1123360035289368E-004
  0.31350000000000000         -1.0251988187701210E-004
  0.31434999999999996         -9.3211454481761821E-005
  0.31519999999999998         -8.3374157831297516E-005
  0.31605000000000000         -7.3078756569680054E-005
  0.31689999999999996         -6.2400726998472421E-005
  0.31774999999999998         -5.1419325754138104E-005
  0.31859999999999999         -4.0216670333565432E-005
  0.31944999999999996         -2.8877453496979052E-005
  0.32029999999999997         -1.7487759223092480E-005
  0.32114999999999999         -6.1343210151933687E-006
  0.32199999999999995          5.0961732219517895E-006
  0.32284999999999997          1.6118053641315962E-005
  0.32369999999999999          2.6847311305232727E-005
  0.32455000000000001          3.7202651102200144E-005
  0.32539999999999997          4.7105953367579249E-005
  0.32624999999999998          5.6483352083582234E-005
  0.32710000000000000          6.5265769696192368E-005
  0.32794999999999996          7.3389414009117067E-005
  0.32879999999999998          8.0796791489507903E-005
  0.32965000000000000          8.7436799749201902E-005
  0.33049999999999996          9.3265522473881050E-005
  0.33134999999999998          9.8246358485448352E-005
  0.33220000000000000          1.0235047076103353E-004
  0.33304999999999996          1.0555698409819671E-004
  0.33389999999999997          1.0785320163106860E-004
  0.33474999999999999          1.0923448545880254E-004
  0.33559999999999995          1.0970445850404271E-004
  0.33644999999999997          1.0927468428338477E-004
  0.33729999999999999          1.0796454899950218E-004
  0.33815000000000001          1.0580104958276201E-004
  0.33899999999999997          1.0281844418040813E-004
  0.33984999999999999          9.9057803639330481E-005
  0.34070000000000000          9.4566561697787365E-005
  0.34154999999999996          8.9397898699342915E-005
  0.34239999999999998          8.3610319260879826E-005
  0.34325000000000000          7.7266862114441483E-005