 -0.12000000000000000          0.0000000000000000
 -0.11914999999999999          0.0000000000000000
 -0.11830000000000000          0.0000000000000000
 -0.11745000000000000         -2.9845414907074472E-017
 -0.11660000000000000         -1.6388661192934261E-016
 -0.11574999999999999         -4.6550740249866941E-016
 -0.11490000000000000         -8.5877979450513746E-016
 -0.11405000000000000         -1.0135877527431484E-015
 -0.11320000000000000         -3.9261731365530144E-016
 -0.11234999999999999          1.4233599369703130E-015
 -0.11150000000000000          4.1659095839814417E-015
 -0.11065000000000000          6.3192581419470235E-015
 -0.10979999999999999          4.9984915574165194E-015
 -0.10894999999999999         -3.3155130079780647E-015
 -0.10810000000000000         -2.1041728801626526E-014
 -0.10725000000000000         -4.7131274277601132E-014
 -0.10639999999999999         -7.4997777046298573E-014
 -0.10554999999999999         -9.2024539885275705E-014
 -0.10470000000000000         -8.1787344705209536E-014
 -0.10385000000000000         -2.9375887073271117E-014
 -0.10299999999999999          7.1062058025586796E-014
 -0.10214999999999999          2.0880669336214514E-013
 -0.10130000000000000          3.5226992546009269E-013
 -0.10045000000000000          4.5104734528117166E-013
  -9.9599999999999994E-002     4.4609769970281100E-013
  -9.8750000000000004E-002     2.8732282037195128E-013
  -9.7900000000000001E-002    -4.5210259147572097E-014
  -9.7049999999999997E-002    -5.2270610458486309E-013
  -9.6199999999999994E-002    -1.0590232674057434E-012
  -9.5349999999999990E-002    -1.5179506489291561E-012
  -9.4500000000000001E-002    -1.7385887995960377E-012
  -9.3649999999999997E-002    -1.5756552470419826E-012
  -9.2799999999999994E-002    -9.4599751277947475E-013
  -9.1950000000000004E-002     1.3126853290910041E-013
  -9.1100000000000000E-002     1.5141705337009167E-012
  -9.0249999999999997E-002     2.9466069602294837E-012
  -8.9399999999999993E-002     4.0991963795676466E-012
  -8.8549999999999990E-002     4.6362670651905062E-012
  -8.7700000000000000E-002     4.2949577744176459E-012
  -8.6849999999999997E-002     2.9575985387891664E-012
  -8.5999999999999993E-002     6.9882958962376757E-013
  -8.5150000000000003E-002    -2.2055012802123944E-012
  -8.4300000000000000E-002    -5.3111789795048646E-012
  -8.3449999999999996E-002    -8.0734041702192150E-012
  -8.2600000000000007E-002    -9.9346246238657526E-012
  -8.1749999999999989E-002    -1.0414687713717631E-011
  -8.0900000000000000E-002    -9.1882800397507541E-012
  -8.0049999999999996E-002    -6.1420996484665070E-012
  -7.9199999999999993E-002    -1.4128896897388914E-012
  -7.8350000000000003E-002     4.5874657447590026E-012
  -7.7499999999999999E-002     1.1153994751623574E-011
  -7.6649999999999996E-002     1.7280795438394710E-011
  -7.5800000000000006E-002     2.1679525354957916E-011
  -7.4949999999999989E-002     2.2852808996734637E-011
  -7.4099999999999999E-002     1.9256883833590536E-011
  -7.3249999999999996E-002     9.5766344115678267E-012
  -7.2399999999999992E-002    -6.8888830613753633E-012
  -7.1550000000000002E-002    -2.9775959594134753E-011
  -7.0699999999999999E-002    -5.7231676203836771E-011
  -6.9849999999999995E-002    -8.5643172177001087E-011
  -6.9000000000000006E-002    -1.0966230998384745E-010
  -6.8149999999999988E-002    -1.2264090473285926E-010
  -6.7299999999999999E-002    -1.1752387581816444E-010
  -6.6449999999999995E-002    -8.8149935363191014E-011
  -6.5599999999999992E-002    -3.0788465091547326E-011
  -6.4750000000000002E-002     5.4355311833077449E-011
  -6.3899999999999998E-002     1.6200045159011638E-010
  -6.3049999999999995E-002     2.8133477506425650E-010
  -6.2199999999999998E-002     3.9648277382370038E-010
  -6.1350000000000002E-002     4.8797572785900481E-010
  -6.0499999999999998E-002     5.3511135937394462E-010
  -5.9650000000000002E-002     5.1889164492605599E-010
  -5.8799999999999998E-002     4.2509227522808971E-010
  -5.7950000000000002E-002     2.4695167135145591E-010
  -5.7099999999999998E-002    -1.2969267609712947E-011
  -5.6249999999999994E-002    -3.4203855251496463E-010
  -5.5400000000000005E-002    -7.1795978094763426E-010
  -5.4550000000000001E-002    -1.1101453600586065E-009
  -5.3699999999999998E-002    -1.4816150335877026E-009
  -5.2849999999999994E-002    -1.7909096481783662E-009
  -5.2000000000000005E-002    -1.9935176304716079E-009
  -5.1150000000000001E-002    -2.0424580854830818E-009
  -5.0299999999999997E-002    -1.8879481540709252E-009
  -4.9449999999999994E-002    -1.4763204478603442E-009
  -4.8600000000000004E-002    -7.4867514939587944E-010
  -4.7750000000000001E-002     3.6022207817900384E-010
  -4.6899999999999997E-002     1.9222354465219611E-009
  -4.6049999999999994E-002     4.0150692234131111E-009
  -4.5200000000000004E-002     6.7203597458843691E-009
  -4.4350000000000001E-002     1.0121108612810705E-008
  -4.3499999999999997E-002     1.4299103878481313E-008
  -4.2649999999999993E-002     1.9333367383548946E-008
  -4.1800000000000004E-002     2.5300578866671288E-008
  -4.0950000000000000E-002     3.2278128470259630E-008
  -4.0099999999999997E-002     4.0350446133924595E-008
  -3.9249999999999993E-002     4.9618329178485370E-008
  -3.8400000000000004E-002     6.0210797004576705E-008
  -3.7550000000000000E-002     7.2298645706865711E-008
  -3.6699999999999997E-002     8.6107965419332671E-008
  -3.5850000000000007E-002     1.0193349904731902E-007
  -3.5000000000000003E-002     1.2014979107271625E-007
  -3.4150000000000000E-002     1.4121997862613789E-007
  -3.3299999999999996E-002     1.6570243538522614E-007
  -3.2450000000000007E-002     1.9425457095761264E-007
  -3.1600000000000003E-002     2.2763551022976225E-007
  -3.0750000000000000E-002     2.6670832064645515E-007
  -2.9899999999999996E-002     3.1244221365022367E-007
  -2.9050000000000006E-002     3.6591655868617079E-007
  -2.8200000000000003E-002     4.2832792843471306E-007
  -2.7349999999999999E-002     5.0100012979645681E-007
  -2.6499999999999996E-002     5.8539812251863733E-007
  -2.5650000000000006E-002     6.8314757630978586E-007
  -2.4800000000000003E-002     7.9605698686684655E-007
  -2.3949999999999999E-002     9.2614461145143897E-007
  -2.3099999999999996E-002     1.0756684131537657E-006
  -2.2250000000000006E-002     1.2471564857170317E-006
  -2.1400000000000002E-002     1.4434412651531473E-006
  -2.0549999999999999E-002     1.6676912995830009E-006
  -1.9699999999999995E-002     1.9234391755572185E-006
  -1.8850000000000006E-002     2.2146112790369390E-006
  -1.8000000000000002E-002     2.5455499023058953E-006
  -1.7149999999999999E-002     2.9210382324677814E-006
  -1.6299999999999995E-002     3.3463242721068485E-006
  -1.5450000000000005E-002     3.8271328101420825E-006
  -1.4600000000000002E-002     4.3696998381839437E-006
  -1.3749999999999998E-002     4.9807963141640023E-006
  -1.2899999999999995E-002     5.6677557995948861E-006
  -1.2050000000000005E-002     6.4385053131381371E-006
  -1.1200000000000002E-002     7.3015911388909960E-006
  -1.0349999999999998E-002     8.2662078031586766E-006
  -9.5000000000000084E-003     9.3422002811843878E-006
  -8.6500000000000049E-003     1.0540097916643707E-005
  -7.8000000000000014E-003     1.1871074891940091E-005
  -6.9499999999999978E-003     1.3346958104799568E-005
  -6.1000000000000082E-003     1.4980168401574344E-005
  -5.2500000000000047E-003     1.6783692956923334E-005
  -4.4000000000000011E-003     1.8771022853726121E-005
  -3.5499999999999976E-003     2.0956119288395582E-005
  -2.7000000000000079E-003     2.3353324697527723E-005
  -1.8500000000000044E-003     2.5977326658762830E-005
  -1.0000000000000009E-003     2.8843009435193446E-005
  -1.4999999999999736E-004     3.1965441775765963E-005
   6.9999999999999230E-004     3.5359774474386835E-005
   1.5499999999999958E-003     3.9041135059157022E-005
   2.3999999999999994E-003     4.3024425018880367E-005
   3.2500000000000029E-003     4.7324162800367218E-005
   4.0999999999999925E-003     5.1954345497159939E-005
   4.9499999999999961E-003     5.6928076650425706E-005
   5.7999999999999996E-003     6.2257400024887452E-005
   6.6499999999999893E-003     6.7952886932828399E-005
   7.5000000000000067E-003     7.4023497532858004E-005
   8.3499999999999963E-003     8.0476082245539514E-005
   9.1999999999999860E-003     8.7315352267684071E-005
   1.0050000000000003E-002     9.4543019486091335E-005
   1.0899999999999993E-002     1.0215804294320697E-004
   1.1750000000000010E-002     1.1015579434635672E-004
   1.2600000000000000E-002     1.1852812914126877E-004
   1.3449999999999990E-002     1.2726281562306291E-004
   1.4300000000000007E-002     1.3634337516476154E-004
   1.5149999999999997E-002     1.4574861318637468E-004
   1.5999999999999986E-002     1.5545227614496810E-004
   1.6850000000000004E-002     1.6542292746561920E-004
   1.7699999999999994E-002     1.7562336988291983E-004
   1.8549999999999983E-002     1.8601066042547512E-004
   1.9400000000000001E-002     1.9653569862993403E-004
   2.0249999999999990E-002     2.0714310615026874E-004
   2.1100000000000008E-002     2.1777072390446149E-004
   2.1949999999999997E-002     2.2835051966789839E-004
   2.2799999999999987E-002     2.3880708918542408E-004
   2.3650000000000004E-002     2.4905940762634830E-004
   2.4499999999999994E-002     2.5901995575784123E-004
   2.5349999999999984E-002     2.6859506323498718E-004
   2.6200000000000001E-002     2.7768534290093216E-004
   2.7049999999999991E-002     2.8618610044418868E-004
   2.7900000000000008E-002     2.9398881991997552E-004
   2.8749999999999998E-002     3.0098040513246930E-004
   2.9599999999999987E-002     3.0704422867740852E-004
   3.0450000000000005E-002     3.1206114348842782E-004
   3.1299999999999994E-002     3.1591028196577200E-004
   3.2149999999999984E-002     3.1847045427573878E-004
   3.3000000000000002E-002     3.1962083802476835E-004
   3.3849999999999991E-002     3.1924153322726069E-004
   3.4700000000000009E-002     3.1721625078035172E-004
   3.5549999999999998E-002     3.1343227683161014E-004
   3.6399999999999988E-002     3.0778406701992625E-004
   3.7250000000000005E-002     3.0017223797083360E-004
   3.8099999999999995E-002     2.9050561445461207E-004
   3.8949999999999985E-002     2.7870383939896715E-004
   3.9800000000000002E-002     2.6469790331709603E-004
   4.0649999999999992E-002     2.4843093994230802E-004
   4.1500000000000009E-002     2.2986204518578429E-004
   4.2349999999999999E-002     2.0896490953196549E-004
   4.3199999999999988E-002     1.8573099319319750E-004
   4.4050000000000006E-002     1.6017030893264952E-004
   4.4899999999999995E-002     1.3231090833472169E-004
   4.5749999999999985E-002     1.0220285973421421E-004
   4.6600000000000003E-002     6.9915498959567562E-005
   4.7449999999999992E-002     3.5538829083148703E-005
   4.8299999999999982E-002    -8.1509780179136595E-007
   4.9149999999999999E-002    -3.9011794658714533E-005
   4.9999999999999989E-002    -7.8896431482121528E-005
   5.0850000000000006E-002    -1.2029210789926012E-004
   5.1699999999999996E-002    -1.6300214111789822E-004
   5.2549999999999986E-002    -2.0680906913403063E-004
   5.3400000000000003E-002    -2.5147789924518982E-004
   5.4249999999999993E-002    -2.9675398686258294E-004
   5.5099999999999982E-002    -3.4237053127033658E-004
   5.5950000000000000E-002    -3.8804398654074983E-004
   5.6799999999999989E-002    -4.3348120073024069E-004
   5.7650000000000007E-002    -4.7837899983277994E-004
   5.8499999999999996E-002    -5.2242838316754773E-004
   5.9349999999999986E-002    -5.6531549961410556E-004
   6.0200000000000004E-002    -6.0672536021289870E-004
   6.1049999999999993E-002    -6.4634528512309028E-004
   6.1899999999999983E-002    -6.8386584733461792E-004
   6.2750000000000000E-002    -7.1898611086645481E-004
   6.3599999999999990E-002    -7.5141518810263044E-004
   6.4450000000000007E-002    -7.8087607028219284E-004
   6.5299999999999997E-002    -8.0710789483265193E-004
   6.6149999999999987E-002    -8.2986927636256337E-004
   6.7000000000000004E-002    -8.4894124104025338E-004
   6.7849999999999994E-002    -8.6412886582776206E-004
   6.8699999999999983E-002    -8.7526459492520117E-004
   6.9550000000000001E-002    -8.8221022481002956E-004
   7.0399999999999990E-002    -8.8485808214594985E-004
   7.1249999999999980E-002    -8.8313198196753810E-004
   7.2099999999999997E-002    -8.7699116070587193E-004
   7.2949999999999987E-002    -8.6642623581788096E-004
   7.3800000000000004E-002    -8.5146388589526936E-004
   7.4649999999999994E-002    -8.3216557926776488E-004
   7.5499999999999984E-002    -8.0862720993308548E-004
   7.6350000000000001E-002    -7.8097769859481316E-004
   7.7199999999999991E-002    -7.4937951829393045E-004
   7.8049999999999981E-002    -7.1402698046044676E-004
   7.8899999999999998E-002    -6.7514388419857027E-004
   7.9749999999999988E-002    -6.3298054710536199E-004
   8.0600000000000005E-002    -5.8781310186408766E-004
   8.1449999999999995E-002    -5.3994159405276472E-004
   8.2299999999999984E-002    -4.8968536333565584E-004
   8.3150000000000002E-002    -4.3737997989070683E-004
   8.3999999999999991E-002    -3.8337449732685382E-004
   8.4849999999999981E-002    -3.2802993001929858E-004
   8.5699999999999998E-002    -2.7171313777252237E-004
   8.6549999999999988E-002    -2.1479526006120320E-004
   8.7400000000000005E-002    -1.5764646398747445E-004
   8.8249999999999995E-002    -1.0063380234696075E-004
   8.9099999999999985E-002    -4.4119153898201395E-005
   8.9950000000000002E-002     1.1547440544942204E-005
   9.0799999999999992E-002     6.6027293298292198E-005
   9.1649999999999981E-002     1.1899885153501464E-004
   9.2499999999999999E-002     1.7015874446329373E-004
   9.3349999999999989E-002     2.1922464401233376E-004
   9.4200000000000006E-002     2.6593730514184826E-004
   9.5049999999999996E-002     3.1006220505376157E-004
   9.5899999999999985E-002     3.5138873706353456E-004
   9.6750000000000003E-002     3.8973587704869311E-004
   9.7599999999999992E-002     4.2494845450957177E-004
   9.8449999999999982E-002     4.5690396684445328E-004
   9.9299999999999999E-002     4.8550540208926803E-004
  0.10014999999999999          5.1068674632950427E-004
  0.10099999999999998          5.3241046126380480E-004
  0.10185000000000000          5.5066811674176538E-004
  0.10269999999999999          5.6547747499752807E-004
  0.10355000000000000          5.7688326991360778E-004
  0.10439999999999999          5.8495394442720661E-004
  0.10524999999999998          5.8978055414585131E-004
  0.10610000000000000          5.9147562257390643E-004
  0.10694999999999999          5.9016939455857047E-004
  0.10779999999999998          5.8601023826056458E-004
  0.10865000000000000          5.7916138329789681E-004
  0.10949999999999999          5.6979881124963588E-004
  0.11035000000000000          5.5810902332456937E-004
  0.11119999999999999          5.4428719328108446E-004
  0.11204999999999998          5.2853515417483252E-004
  0.11290000000000000          5.1105833044997771E-004
  0.11374999999999999          4.9206436199890650E-004
  0.11459999999999998          4.7176084323924741E-004
  0.11545000000000000          4.5035302209046386E-004
  0.11629999999999999          4.2804245867936668E-004
  0.11715000000000000          4.0502527184413465E-004
  0.11799999999999999          3.8149078235411981E-004
  0.11884999999999998          3.5762051744894400E-004
  0.11970000000000000          3.3358690137062210E-004
  0.12054999999999999          3.0955247911616183E-004
  0.12139999999999998          2.8566896001114143E-004
  0.12225000000000000          2.6207693167461498E-004
  0.12309999999999999          2.3890452695686233E-004
  0.12395000000000000          2.1626754044945474E-004
  0.12479999999999999          1.9426938435518104E-004
  0.12564999999999998          1.7300039994722324E-004
  0.12650000000000000          1.5253894379071154E-004
  0.12734999999999999          1.3295058597929363E-004
  0.12819999999999998          1.1428918361874823E-004
  0.12905000000000000          9.6597911616437188E-005
  0.12989999999999999          7.9908516723897755E-005
  0.13074999999999998          6.4242938158968940E-005
  0.13159999999999999          4.9613996419694748E-005
  0.13245000000000001          3.6024613201263691E-005
  0.13329999999999997          2.3470418271473206E-005
  0.13414999999999999          1.1938672017950569E-005
  0.13500000000000001          1.4101711820531686E-006
  0.13584999999999997         -8.1406982171838244E-006
  0.13669999999999999         -1.6744609496640784E-005
  0.13755000000000001         -2.4436724614352266E-005
  0.13839999999999997         -3.1256015553220699E-005
  0.13924999999999998         -3.7243963518421985E-005
  0.14010000000000000         -4.2444351277427653E-005
  0.14094999999999996         -4.6902572781549125E-005
  0.14179999999999998         -5.0665308164337015E-005
  0.14265000000000000         -5.3779627867731949E-005
  0.14350000000000002         -5.6293278984252236E-005
  0.14434999999999998         -5.8253349455436674E-005
  0.14520000000000000         -5.9706853075361979E-005
  0.14605000000000001         -6.0699869865801917E-005
  0.14689999999999998         -6.1277178114773056E-005
  0.14774999999999999         -6.1481582014986230E-005
  0.14860000000000001         -6.1354140292266393E-005
  0.14944999999999997         -6.0933549044158751E-005
  0.15029999999999999         -6.0256125208465626E-005
  0.15115000000000001         -5.9356163330076493E-005
  0.15199999999999997         -5.8265254556101159E-005
  0.15284999999999999         -5.7013177646771938E-005
  0.15370000000000000         -5.5627551469513522E-005
  0.15454999999999997         -5.4134010304824011E-005
  0.15539999999999998         -5.2556418625164498E-005
  0.15625000000000000         -5.0916138165066104E-005
  0.15709999999999996         -4.9232978711116679E-005
  0.15794999999999998         -4.7524209137875184E-005
  0.15880000000000000         -4.5805193851147834E-005
  0.15965000000000001         -4.4089073180173961E-005
  0.16049999999999998         -4.2387016186740620E-005
  0.16134999999999999         -4.0708320387237550E-005
  0.16220000000000001         -3.9060794925325010E-005
  0.16304999999999997         -3.7451084826483299E-005
  0.16389999999999999         -3.5884622008260603E-005
  0.16475000000000001         -3.4366125630284593E-005
  0.16559999999999997         -3.2899495166101181E-005
  0.16644999999999999         -3.1487690347861537E-005
  0.16730000000000000         -3.0132844426231239E-005
  0.16814999999999997         -2.8836254961161599E-005
  0.16899999999999998         -2.7598228033157297E-005
  0.16985000000000000         -2.6418152626800013E-005
  0.17069999999999996         -2.5294790656576142E-005
  0.17154999999999998         -2.4226232851612352E-005
  0.17240000000000000         -2.3210252387049021E-005
  0.17325000000000002         -2.2244184651148629E-005
  0.17409999999999998         -2.1325528637745313E-005
  0.17494999999999999         -2.0451653213976464E-005
  0.17580000000000001         -1.9619955435534484E-005
  0.17664999999999997         -1.8827802072599582E-005
  0.17749999999999999         -1.8072466268059487E-005
  0.17835000000000001         -1.7351196555168426E-005
  0.17919999999999997         -1.6661217114516631E-005
  0.18004999999999999         -1.5999743791780700E-005
  0.18090000000000001         -1.5364075721913566E-005
  0.18174999999999997         -1.4751727078960659E-005
  0.18259999999999998         -1.4160539897465937E-005
  0.18345000000000000         -1.3588590624103809E-005
  0.18429999999999996         -1.3034422145073808E-005
  0.18514999999999998         -1.2496876310446377E-005
  0.18600000000000000         -1.1974872349460994E-005
  0.18684999999999996         -1.1467575697218000E-005
  0.18769999999999998         -1.0974131654707214E-005
  0.18855000000000000         -1.0493728015752647E-005
  0.18940000000000001         -1.0025524190332181E-005
  0.19024999999999997         -9.5688083850593965E-006
  0.19109999999999999         -9.1230883335801937E-006
  0.19195000000000001         -8.6881110975643270E-006
  0.19279999999999997         -8.2640189652690042E-006
  0.19364999999999999         -7.8512902775918159E-006
  0.19450000000000001         -7.4506931077899795E-006
  0.19534999999999997         -7.0631609315152733E-006
  0.19619999999999999         -6.6896477145008662E-006
  0.19705000000000000         -6.3309250057071749E-006
  0.19789999999999996         -5.9875966325464706E-006
  0.19874999999999998         -5.6598587761299189E-006
  0.19960000000000000         -5.3476946100592256E-006
  0.20044999999999996         -5.0509130595111237E-006
  0.20129999999999998         -4.7692358114826517E-006
  0.20215000000000000         -4.5024850828935405E-006
  0.20300000000000001         -4.2506141279072448E-006
  0.20384999999999998         -4.0137799741874170E-006
  0.20469999999999999         -3.7922902812370954E-006
  0.20555000000000001         -3.5864926535169275E-006
  0.20639999999999997         -3.3966977796018191E-006
  0.20724999999999999         -3.2230741587764041E-006
  0.20810000000000001         -3.0655266391704398E-006
  0.20894999999999997         -2.9236751909273775E-006
  0.20979999999999999         -2.7969225425617600E-006
  0.21065000000000000         -2.6845309323252880E-006
  0.21149999999999997         -2.5857821606540132E-006
  0.21234999999999998         -2.5000150761175121E-006
  0.21320000000000000         -2.4267247529981699E-006
  0.21404999999999996         -2.3655993068207543E-006
  0.21489999999999998         -2.3164154484416604E-006
  0.21575000000000000         -2.2789970713166579E-006
  0.21659999999999996         -2.2530834661339392E-006
  0.21744999999999998         -2.2382005333437846E-006
  0.21829999999999999         -2.2337073162863126E-006
  0.21915000000000001         -2.2387176170590290E-006
  0.21999999999999997         -2.2522129265271737E-006
  0.22084999999999999         -2.2731504822444972E-006
  0.22170000000000001         -2.3005296936665623E-006
  0.22254999999999997         -2.3335215494262599E-006
  0.22339999999999999         -2.3714169262824047E-006
  0.22425000000000000         -2.4136919861570126E-006
  0.22509999999999997         -2.4598825201717800E-006
  0.22594999999999998         -2.5094632226888073E-006
  0.22680000000000000         -2.5617612233210533E-006
  0.22764999999999996         -2.6158474622193434E-006
  0.22849999999999998         -2.6705052061104270E-006
  0.22935000000000000         -2.7243165899377343E-006
  0.23019999999999996         -2.7756998742196773E-006
  0.23104999999999998         -2.8230693671750415E-006
  0.23190000000000000         -2.8649397388708263E-006
  0.23275000000000001         -2.9000650183161274E-006
  0.23359999999999997         -2.9274442432252970E-006
  0.23444999999999999         -2.9463593595184303E-006
  0.23530000000000001         -2.9563266908276927E-006
  0.23614999999999997         -2.9569951177203238E-006
  0.23699999999999999         -2.9480994554760901E-006
  0.23785000000000001         -2.9293341444728183E-006
  0.23869999999999997         -2.9003594370439139E-006
  0.23954999999999999         -2.8608235636576866E-006
  0.24040000000000000         -2.8103779429376587E-006
  0.24124999999999996         -2.7487776243891731E-006
  0.24209999999999998         -2.6759451690874794E-006
  0.24295000000000000         -2.5920513320826689E-006
  0.24379999999999996         -2.4974956562089204E-006
  0.24464999999999998         -2.3929273640836853E-006
  0.24550000000000000         -2.2792019113109153E-006
  0.24634999999999996         -2.1572896804670208E-006
  0.24719999999999998         -2.0282414737033244E-006
  0.24804999999999999         -1.8931569194302896E-006
  0.24890000000000001         -1.7531765941020548E-006
  0.24974999999999997         -1.6094647104296396E-006
  0.25059999999999999         -1.4632420652980216E-006
  0.25145000000000001         -1.3158273112564873E-006
  0.25229999999999997         -1.1685927184104946E-006
  0.25314999999999999         -1.0229582108879487E-006
  0.25400000000000000         -8.8030589725500146E-007
  0.25484999999999997         -7.4193789488708053E-007
  0.25569999999999998         -6.0896885322011972E-007
  0.25655000000000000         -4.8228982897669736E-007
  0.25739999999999996         -3.6255135220270569E-007
  0.25824999999999998         -2.5016286065158497E-007
  0.25910000000000000         -1.4540179495761645E-007
  0.25994999999999996         -4.8486547292637178E-008
  0.26079999999999998          4.0328632633012410E-008
  0.26164999999999999          1.2068540311213594E-007
  0.26249999999999996          1.9207587562021396E-007
  0.26334999999999997          2.5387959688152276E-007
  0.26419999999999999          3.0544734224971333E-007
  0.26505000000000001          3.4621373164170275E-007
  0.26589999999999997          3.7583163772962995E-007
  0.26674999999999999          3.9424654387653334E-007
  0.26760000000000000          4.0172816207661936E-007
  0.26844999999999997          3.9889253744595447E-007
  0.26929999999999998          3.8658841017672646E-007
  0.27015000000000000          3.6575491688668658E-007
  0.27099999999999996          3.3730120798099086E-007
  0.27184999999999998          3.0192757443221846E-007
  0.27270000000000000          2.6009203156726824E-007
  0.27354999999999996          2.1196962911655130E-007
  0.27439999999999998          1.5749060308979545E-007
  0.27524999999999999          9.6490218351388213E-008
  0.27609999999999996          2.8845642674533050E-008
  0.27694999999999997         -4.5415124617429566E-008
  0.27779999999999999         -1.2598412922571924E-007
  0.27865000000000001         -2.1223064317643370E-007
  0.27949999999999997         -3.0323366356707463E-007
  0.28034999999999999         -3.9786642755074734E-007
  0.28120000000000001         -4.9490318505344834E-007
  0.28204999999999997         -5.9315155050890999E-007
  0.28289999999999998         -6.9154591946601613E-007
  0.28375000000000000         -7.8920691129724258E-007
  0.28459999999999996         -8.8542664539526984E-007
  0.28544999999999998         -9.7961977829093281E-007
  0.28630000000000000         -1.0712243760890277E-006
  0.28714999999999996         -1.1596206199170485E-006
  0.28799999999999998         -1.2440562026967124E-006
  0.28885000000000000         -1.3236217957619092E-006
  0.28969999999999996         -1.3972528932621222E-006
  0.29054999999999997         -1.4638227583916209E-006
  0.29139999999999999         -1.5222234847867131E-006
  0.29224999999999995         -1.5714562306578989E-006
  0.29309999999999997         -1.6107191862008203E-006
  0.29394999999999999         -1.6394402037919720E-006
  0.29480000000000001         -1.6572811824874886E-006
  0.29564999999999997         -1.6640909561272549E-006
  0.29649999999999999         -1.6598550883895211E-006
  0.29735000000000000         -1.6446236002828082E-006
  0.29819999999999997         -1.6184693268603785E-006
  0.29904999999999998         -1.5814811196933979E-006
  0.29990000000000000         -1.5337730900225207E-006
  0.30074999999999996         -1.4755582711670271E-006
  0.30159999999999998         -1.4071878528995247E-006
  0.30245000000000000         -1.3291922242107512E-006
  0.30329999999999996         -1.2423263627111143E-006
  0.30414999999999998         -1.1475381900774242E-006
  0.30499999999999999         -1.0459134188184466E-006
  0.30584999999999996         -9.3863070066279225E-007
  0.30669999999999997         -8.2686054133650606E-007
  0.30754999999999999         -7.1172493057206531E-007
  0.30840000000000001         -5.9425481140643579E-007
  0.30924999999999997         -4.7541432083536834E-007
  0.31009999999999999         -3.5611574203413601E-007
  0.31095000000000000         -2.3729083806370392E-007
  0.31179999999999997         -1.1991258779387123E-007
  0.31264999999999998         -5.0415268001047156E-009
  0.31350000000000000          1.0620427268372616E-007
  0.31434999999999996          2.1269054127828384E-007
  0.31519999999999998          3.1337029540074237E-007
  0.31605000000000000          4.0733930267832638E-007
  0.31689999999999996          4.9390886711616392E-007
  0.31774999999999998          5.7263183215794082E-007
  0.31859999999999999          6.4328087530814807E-007
  0.31944999999999996          7.0577062107745918E-007
  0.32029999999999997          7.6007490740339242E-007
  0.32114999999999999          8.0612747696811518E-007
  0.32199999999999995          8.4373472207230064E-007
  0.32284999999999997          8.7256871244478274E-007
  0.32369999999999999          8.9219247179909714E-007
  0.32455000000000001          9.0217442874455404E-007
  0.32539999999999997          9.0218659785280950E-007
  0.32624999999999998          8.9213247856380141E-007
  0.32710000000000000          8.7223323254044190E-007
  0.32794999999999996          8.4301882902581262E-007
  0.32879999999999998          8.0530194100028142E-007
  0.32965000000000000          7.6003687280210500E-007
  0.33049999999999996          7.0814986260388830E-007
  0.33134999999999998          6.5040496015757348E-007
  0.33220000000000000          5.8729774236566152E-007
  0.33304999999999996          5.1900384843856815E-007
  0.33389999999999997          4.4544634570055500E-007
  0.33474999999999999          3.6640964322754856E-007
  0.33559999999999995          2.8174997017111282E-007
  0.33644999999999997          1.9153985939111844E-007
  0.33729999999999999          9.6230350461638893E-008
  0.33815000000000001         -3.3130689869087585E-009
  0.33899999999999997         -1.0582543235133022E-007
  0.33984999999999999         -2.0979334776435313E-007
  0.34070000000000000         -3.1362700471340489E-007
  0.34154999999999996         -4.1585069524012038E-007
  0.34239999999999998         -5.1527020342461177E-007