 -0.12000000000000000          0.0000000000000000
 -0.11914999999999999          0.0000000000000000
 -0.11830000000000000          0.0000000000000000
 -0.11745000000000000          0.0000000000000000
 -0.11660000000000000          0.0000000000000000
 -0.11574999999999999          0.0000000000000000
 -0.11490000000000000          0.0000000000000000
 -0.11405000000000000          0.0000000000000000
 -0.11320000000000000          0.0000000000000000
 -0.11234999999999999         -2.5460696502996895E-036
 -0.11150000000000000         -3.4224834868000367E-035
 -0.11065000000000000         -2.2589913495631262E-034
 -0.10979999999999999         -9.4917007145127327E-034
 -0.10894999999999999         -2.6992805703429552E-033
 -0.10810000000000000         -4.7046923834631378E-033
 -0.10725000000000000         -7.0731279978461778E-034
 -0.10639999999999999          2.7905943571052869E-032
 -0.10554999999999999          1.1426390365210507E-031
 -0.10470000000000000          2.8306993901476264E-031
 -0.10385000000000000          4.7307151059124028E-031
 -0.10299999999999999          3.9626280692911631E-031
 -0.10214999999999999         -5.8999758403020131E-031
 -0.10130000000000000         -3.3658421573470833E-030
 -0.10045000000000000         -8.3082264154417350E-030
  -9.9599999999999994E-002    -1.3627945621528405E-029
  -9.8750000000000004E-002    -1.3100797318090351E-029
  -9.7900000000000001E-002     5.1567049388851821E-030
  -9.7049999999999997E-002     5.5509910695132487E-029
  -9.6199999999999994E-002     1.4307490742278993E-028
  -9.5349999999999990E-002     2.4162857661780313E-028
  -9.4500000000000001E-002     2.6710427686409106E-028
  -9.3649999999999997E-002     6.5940348508337794E-029
  -9.2799999999999994E-002    -5.4830840084103125E-028
  -9.1950000000000004E-002    -1.6733223413034978E-027
  -9.1100000000000000E-002    -3.0987388240332503E-027
  -9.0249999999999997E-002    -4.0425369041209271E-027
  -8.9399999999999993E-002    -3.0011596521067955E-027
  -8.8549999999999990E-002     2.0211288440959933E-027
  -8.7700000000000000E-002     1.2606681769193735E-026
  -8.6849999999999997E-002     2.8198079273825388E-026
  -8.5999999999999993E-002     4.3833131340399299E-026
  -8.5150000000000003E-002     4.8318560181070006E-026
  -8.4300000000000000E-002     2.4589337827495600E-026
  -8.3449999999999996E-002    -4.5586954034221654E-026
  -8.2600000000000007E-002    -1.7096378000165440E-025
  -8.1749999999999989E-002    -3.3475503540776355E-025
  -8.0900000000000000E-002    -4.7754753357433065E-025
  -8.0049999999999996E-002    -4.8846860788064206E-025
  -7.9199999999999993E-002    -2.1789865041199886E-025
  -7.8350000000000003E-002     4.7492149478828295E-025
  -7.7499999999999999E-002     1.6333843529584803E-024
  -7.6649999999999996E-002     3.0851337301697429E-024
  -7.5800000000000006E-002     4.3305500273329302E-024
  -7.4949999999999989E-002     4.5029001920813067E-024
  -7.4099999999999999E-002     2.4829345224973466E-024
  -7.3249999999999996E-002    -2.7583440734025234E-024
  -7.2399999999999992E-002    -1.1567467261661888E-023
  -7.1550000000000002E-002    -2.2849219774128051E-023
  -7.0699999999999999E-002    -3.3366662491105816E-023
  -6.9849999999999995E-002    -3.7474405123339412E-023
  -6.9000000000000006E-002    -2.7745454673118147E-023
  -6.8149999999999988E-002     3.1037507537264877E-024
  -6.7299999999999999E-002     5.8859181424284548E-023
  -6.6449999999999995E-002     1.3541708162409077E-022
  -6.5599999999999992E-002     2.1646458246837717E-022
  -6.4750000000000002E-002     2.7109435587821015E-022
  -6.3899999999999998E-002     2.5571032367418426E-022
  -6.3049999999999995E-002     1.2246331776150783E-022
  -6.2199999999999998E-002    -1.6462422365735098E-022
  -6.1350000000000002E-002    -6.0690693758263089E-022
  -6.0499999999999998E-002    -1.1460363484605892E-021
  -5.9650000000000002E-002    -1.6445027621226475E-021
  -5.8799999999999998E-002    -1.8827468769567745E-021
  -5.7950000000000002E-002    -1.5846457352366459E-021
  -5.7099999999999998E-002    -4.8035010523021435E-022
  -5.6249999999999994E-002     1.5922123732473798E-021
  -5.5400000000000005E-002     4.5585238641644034E-021
  -5.4550000000000001E-002     7.9788911666012313E-021
  -5.3699999999999998E-002     1.0963994447137471E-020
  -5.2849999999999994E-002     1.2189687870759644E-020
  -5.2000000000000005E-002     1.0065872138870967E-020
  -5.1150000000000001E-002     3.0961534916701570E-021
  -5.0299999999999997E-002    -9.5747167965794678E-021
  -4.9449999999999994E-002    -2.7489418195412635E-020
  -4.8600000000000004E-002    -4.8220897794007545E-020
  -4.7750000000000001E-002    -6.6940677459984324E-020
  -4.6899999999999997E-002    -7.6472936935599845E-020
  -4.6049999999999994E-002    -6.8092894467980583E-020
  -4.5200000000000004E-002    -3.3249916622039051E-020
  -4.4350000000000001E-002     3.3775842325744412E-020
  -4.3499999999999997E-002     1.3253854648228141E-019
  -4.2649999999999993E-002     2.5299829754477821E-019
  -4.1800000000000004E-002     3.7292067051267636E-019
  -4.0950000000000000E-002     4.5728077118114374E-019
  -4.0099999999999997E-002     4.6091139186333130E-019
  -3.9249999999999993E-002     3.3539455866455055E-019
  -3.8400000000000004E-002     4.0568329824050227E-020
  -3.7550000000000000E-002    -4.4002297314931248E-019
  -3.6699999999999997E-002    -1.0817867372475552E-018
  -3.5850000000000007E-002    -1.8034260010404224E-018
  -3.5000000000000003E-002    -2.4578991226834461E-018
  -3.4150000000000000E-002    -2.8356656218264290E-018
  -3.3299999999999996E-002    -2.6855598452986157E-018
  -3.2450000000000007E-002    -1.7567998313084993E-018
  -3.1600000000000003E-002     1.3791399009427858E-019
  -3.0750000000000000E-002     3.0434694295113865E-018
  -2.9899999999999996E-002     6.7791652469192028E-018
  -2.9050000000000006E-002     1.0869316789433273E-017
  -2.8200000000000003E-002     1.4510694847751061E-017
  -2.7349999999999999E-002     1.6601732581057298E-017
  -2.6499999999999996E-002     1.5855264896950754E-017
  -2.5650000000000006E-002     1.1007022745298698E-017
  -2.4800000000000003E-002     1.1156371898597479E-018
  -2.3949999999999999E-002    -1.4072605525142014E-017
  -2.3099999999999996E-002    -3.3747034438756987E-017
  -2.2250000000000006E-002    -5.5721712806683922E-017
  -2.1400000000000002E-002    -7.6286702977501110E-017
  -2.0549999999999999E-002    -9.0322454774611798E-017
  -1.9699999999999995E-002    -9.1763836244780007E-017
  -1.8850000000000006E-002    -7.4461039758060271E-017
  -1.8000000000000002E-002    -3.3421238118677139E-017
  -1.7149999999999999E-002     3.3670872522660144E-017
  -1.6299999999999995E-002     1.2485087990749451E-016
  -1.5450000000000005E-002     2.3248081307382771E-016
  -1.4600000000000002E-002     3.4242126609649035E-016
  -1.3749999999999998E-002     4.3414897486181223E-016
  -1.2899999999999995E-002     4.8215440894272271E-016
  -1.2050000000000005E-002     4.5883009940442765E-016
  -1.1200000000000002E-002     3.3885074430295633E-016
  -1.0349999999999998E-002     1.0476882495422984E-016
  -9.5000000000000084E-003    -2.4677370870330475E-016
  -8.6500000000000049E-003    -6.9913337379325124E-016
  -7.8000000000000014E-003    -1.2112222013877753E-015
  -6.9499999999999978E-003    -1.7158288490931270E-015
  -6.1000000000000082E-003    -2.1219332276974167E-015
  -5.2500000000000047E-003    -2.3219404331069783E-015
  -4.4000000000000011E-003    -2.2042058769822831E-015
  -3.5499999999999976E-003    -1.6704364901157955E-015
  -2.7000000000000079E-003    -6.5660203888778431E-016
  -1.8500000000000044E-003     8.4500281392811948E-016
  -1.0000000000000009E-003     2.7657999005906368E-015
  -1.4999999999999736E-004     4.9469357381069546E-015
   6.9999999999999230E-004     7.1352683553186469E-015
   1.5499999999999958E-003     8.9929050942638379E-015
   2.3999999999999994E-003     1.0122722391309979E-014
   3.2500000000000029E-003     1.0110486065466587E-014
   4.0999999999999925E-003     8.5818288353523805E-015
   4.9499999999999961E-003     5.2696242580956289E-015
   5.7999999999999996E-003     8.4588095592919303E-017
   6.6499999999999893E-003    -6.8203244919489057E-015
   7.5000000000000067E-003    -1.5002643080055466E-014
   8.3499999999999963E-003    -2.3711289453081307E-014
   9.1999999999999860E-003    -3.1905390877064185E-014
   1.0050000000000003E-002    -3.8317691554899617E-014
   1.0899999999999993E-002    -4.1564599980212693E-014
   1.1750000000000010E-002    -4.0299021305793987E-014
   1.2600000000000000E-002    -3.3395620157618203E-014
   1.3449999999999990E-002    -2.0151537251544571E-014
   1.4300000000000007E-002    -4.8032280758521647E-016
   1.5149999999999997E-002     2.4926936727379084E-014
   1.5999999999999986E-002     5.4500168593295259E-014
   1.6850000000000004E-002     8.5773011801175975E-014
   1.7699999999999994E-002     1.1546848260480885E-013
   1.8549999999999983E-002     1.3969740155146553E-013
   1.9400000000000001E-002     1.5426792920026199E-013
   2.0249999999999990E-002     1.5509140091184970E-013
   2.1100000000000008E-002     1.3865671187386927E-013
   2.1949999999999997E-002     1.0253351889830199E-013
   2.2799999999999987E-002     4.5855653760882786E-014
   2.3650000000000004E-002    -3.0268591283164564E-014
   2.4499999999999994E-002    -1.2247274872475180E-013
   2.5349999999999984E-002    -2.2502255378403090E-013
   2.6200000000000001E-002    -3.2991769905260002E-013
   2.7049999999999991E-002    -4.2722638816529138E-013
   2.7900000000000008E-002    -5.0565664702250964E-013
   2.8749999999999998E-002    -5.5334696693277520E-013
   2.9599999999999987E-002    -5.5883927930260556E-013
   3.0450000000000005E-002    -5.1217802009484948E-013
   3.1299999999999994E-002    -4.0606414937752691E-013
   3.2149999999999984E-002    -2.3697867734243510E-013
   3.3000000000000002E-002    -6.1856485159385316E-015
   3.3849999999999991E-002     2.7947824321562217E-013
   3.4700000000000009E-002     6.0711807103488191E-013
   3.5549999999999998E-002     9.5767925879077026E-013
   3.6399999999999988E-002     1.3062979816981019E-012
   3.7250000000000005E-002     1.6231511359299085E-012
   3.8099999999999995E-002     1.8748295155620172E-012
   3.8949999999999985E-002     2.0262291526365318E-012
   3.9800000000000002E-002     2.0429203128044708E-012
   4.0649999999999992E-002     1.8939171006789364E-012
   4.1500000000000009E-002     1.5547268171412985E-012
   4.2349999999999999E-002     1.0105164891947142E-012
   4.3199999999999988E-002     2.5919510346310124E-013
   4.4050000000000006E-002    -6.8583207072137466E-013
   4.4899999999999995E-002    -1.7934986417067938E-012
   4.5749999999999985E-002    -3.0137820496895505E-012
   4.6600000000000003E-002    -4.2775491135137264E-012
   4.7449999999999992E-002    -5.4977788389137936E-012
   4.8299999999999982E-002    -6.5723505234489348E-012
   4.9149999999999999E-002    -7.3884929986342075E-012
   4.9999999999999989E-002    -7.8288955112617936E-012
   5.0850000000000006E-002    -7.7793378295873977E-012
   5.1699999999999996E-002    -7.1375759498537793E-012
   5.2549999999999986E-002    -5.8230587651915424E-012
   5.3400000000000003E-002    -3.7869254932823884E-012
   5.4249999999999993E-002    -1.0216263286098916E-012
   5.5099999999999982E-002     2.4305936450837055E-012
   5.5950000000000000E-002     6.4711189937745307E-012
   5.6799999999999989E-002     1.0941073392933883E-011
   5.7650000000000007E-002     1.5620809845246349E-011
   5.8499999999999996E-002     2.0233361934873779E-011
   5.9349999999999986E-002     2.4452238322258428E-011
   6.0200000000000004E-002     2.7913730988523320E-011
   6.1049999999999993E-002     3.0233635406442761E-011
   6.1899999999999983E-002     3.1028027917830173E-011
   6.2750000000000000E-002     2.9937348038038136E-011
   6.3599999999999990E-002     2.6652939734544782E-011
   6.4450000000000007E-002     2.0944713423650009E-011
   6.5299999999999997E-002     1.2688587279578213E-011
   6.6149999999999987E-002     1.8919878843770494E-012
   6.7000000000000004E-002    -1.1284207939079056E-011
   6.7849999999999994E-002    -2.6509142589457822E-011
   6.8699999999999983E-002    -4.3272519703921806E-011
   6.9550000000000001E-002    -6.0883780810849778E-011
   7.0399999999999990E-002    -7.8481301496268900E-011
   7.1249999999999980E-002    -9.5052517595360968E-011
   7.2099999999999997E-002    -1.0946567634663233E-010
   7.2949999999999987E-002    -1.2051304989922011E-010
   7.3800000000000004E-002    -1.2696529583214913E-010
   7.4649999999999994E-002    -1.2763565273211596E-010
   7.5499999999999984E-002    -1.2145197445056509E-010
   7.6350000000000001E-002    -1.0753428444086596E-010
   7.7199999999999991E-002    -8.5274475912614552E-011
   7.8049999999999981E-002    -5.4414615798767628E-011
   7.8899999999999998E-002    -1.5119583681898494E-011
   7.9749999999999988E-002     3.1960204831598552E-011
   8.0600000000000005E-002     8.5640406145242411E-011
   8.1449999999999995E-002     1.4417292855718763E-010
   8.2299999999999984E-002     2.0523844091594282E-010
   8.3150000000000002E-002     2.6596440897424432E-010
   8.3999999999999991E-002     3.2297116030007969E-010
   8.4849999999999981E-002     3.7244694599036073E-010
   8.5699999999999998E-002     4.1025281137667650E-010
   8.6549999999999988E-002     4.3205566193116937E-010
   8.7400000000000005E-002     4.3348798548707795E-010
   8.8249999999999995E-002     4.1033039581957657E-010
   8.9099999999999985E-002     3.5871296817919255E-010
   8.9950000000000002E-002     2.7532989715063854E-010
   9.0799999999999992E-002     1.5766169532978986E-010
   9.1649999999999981E-002     4.1975885562734812E-012
   9.2499999999999999E-002    -1.8534672605959944E-010
   9.3349999999999989E-002    -4.0982470650515026E-010
   9.4200000000000006E-002    -6.6647199550510282E-010
   9.5049999999999996E-002    -9.5074452815633237E-010
   9.5899999999999985E-002    -1.2561828952809520E-009
   9.6750000000000003E-002    -1.5743094768993466E-009
   9.7599999999999992E-002    -1.8945555262247103E-009
   9.8449999999999982E-002    -2.2042203859655692E-009
   9.9299999999999999E-002    -2.4884572213643529E-009
  0.10014999999999999         -2.7302790439720519E-009
  0.10099999999999998         -2.9105790786958511E-009
  0.10185000000000000         -3.0081468733995689E-009
  0.10269999999999999         -2.9996698436518965E-009
  0.10355000000000000         -2.8597018650547353E-009
  0.10439999999999999         -2.5605736253722527E-009
  0.10524999999999998         -2.0722185692914132E-009
  0.10610000000000000         -1.3618992546209959E-009
  0.10694999999999999         -3.9378003007023238E-010
  0.10779999999999998          8.7165802907584981E-010
  0.10865000000000000          2.4784152319069510E-009
  0.10949999999999999          4.4759958367506868E-009
  0.11035000000000000          6.9207233353098016E-009
  0.11119999999999999          9.8773434515666048E-009
  0.11204999999999998          1.3420979479584173E-008
  0.11290000000000000          1.7639448299720895E-008
  0.11374999999999999          2.2635993667092060E-008
  0.11459999999999998          2.8532453245478522E-008
  0.11545000000000000          3.5472887848725415E-008
  0.11629999999999999          4.3627720584778923E-008
  0.11715000000000000          5.3198388673172105E-008
  0.11799999999999999          6.4422574925252136E-008
  0.11884999999999998          7.7580021749353975E-008
  0.11970000000000000          9.2999048397329510E-008
  0.12054999999999999          1.1106357041055050E-007
  0.12139999999999998          1.3222110876302496E-007
  0.12225000000000000          1.5699133245446062E-007
  0.12309999999999999          1.8597559437199319E-007
  0.12395000000000000          2.1986730988787360E-007
  0.12479999999999999          2.5946330166833470E-007
  0.12564999999999998          3.0567629991107270E-007
  0.12650000000000000          3.5954845164904832E-007
  0.12734999999999999          4.2226606261334804E-007
  0.12819999999999998          4.9517548782963230E-007
  0.12905000000000000          5.7980087801901075E-007
  0.12989999999999999          6.7786280087914540E-007
  0.13074999999999998          7.9129806132857256E-007
  0.13159999999999999          9.2228295120426743E-007
  0.13245000000000001          1.0732549486610821E-006
  0.13329999999999997          1.2469386181212849E-006
  0.13414999999999999          1.4463710404206489E-006
  0.13500000000000001          1.6749310636221139E-006
  0.13584999999999997          1.9363660139685848E-006
  0.13669999999999999          2.2348244729738402E-006
  0.13755000000000001          2.5748848664952022E-006
  0.13839999999999997          2.9615882855607463E-006
  0.13924999999999998          3.4004692601187961E-006
  0.14010000000000000          3.8975870120274232E-006
  0.14094999999999996          4.4595577072012326E-006
  0.14179999999999998          5.0935806866645840E-006
  0.14265000000000000          5.8074681849781254E-006
  0.14350000000000002          6.6096704216911160E-006
  0.14434999999999998          7.5092953198060915E-006
  0.14520000000000000          8.5161241423782309E-006
  0.14605000000000001          9.6406250557787549E-006
  0.14689999999999998          1.0893957656370036E-005
  0.14774999999999999          1.2287966165117469E-005
  0.14860000000000001          1.3835166376861478E-005
  0.14944999999999997          1.5548744386561073E-005
  0.15029999999999999          1.7442488962980789E-005
  0.15115000000000001          1.9530776427855380E-005
  0.15199999999999997          2.1828499921093263E-005
  0.15284999999999999          2.4350989888628480E-005
  0.15370000000000000          2.7113942466298603E-005
  0.15454999999999997          3.0133281938349326E-005
  0.15539999999999998          3.3425068979794627E-005
  0.15625000000000000          3.7005324072994882E-005
  0.15709999999999996          4.0889868570558089E-005
  0.15794999999999998          4.5094166337245747E-005
  0.15880000000000000          4.9633087460489687E-005
  0.15965000000000001          5.4520656430435196E-005
  0.16049999999999998          5.9769858209433047E-005
  0.16134999999999999          6.5392319027739027E-005
  0.16220000000000001          7.1398019768568574E-005
  0.16304999999999997          7.7795003613501286E-005
  0.16389999999999999          8.4589027862883414E-005
  0.16475000000000001          9.1783257159366865E-005
  0.16559999999999997          9.9377828745122923E-005
  0.16644999999999999          1.0736958352182023E-004
  0.16730000000000000          1.1575163074789772E-004
  0.16814999999999997          1.2451294996333645E-004
  0.16899999999999998          1.3363806505476222E-004
  0.16985000000000000          1.4310668856158960E-004
  0.17069999999999996          1.5289330057927821E-004
  0.17154999999999998          1.6296692191659006E-004
  0.17240000000000000          1.7329073727430179E-004
  0.17325000000000002          1.8382183152895087E-004
  0.17409999999999998          1.9451082921136573E-004
  0.17494999999999999          2.0530203604022046E-004
  0.17580000000000001          2.1613298535063045E-004
  0.17664999999999997          2.2693454270570230E-004
  0.17749999999999999          2.3763075077818079E-004
  0.17835000000000001          2.4813902331526620E-004
  0.17919999999999997          2.5837032473022774E-004
  0.18004999999999999          2.6822925334701522E-004
  0.18090000000000001          2.7761441031150664E-004
  0.18174999999999997          2.8641909431143371E-004
  0.18259999999999998          2.9453141102058221E-004
  0.18345000000000000          3.0183514562063195E-004
  0.18429999999999996          3.0821049556985810E-004
  0.18514999999999998          3.1353498012303685E-004
  0.18600000000000000          3.1768402642115865E-004
  0.18684999999999996          3.2053244315713328E-004
  0.18769999999999998          3.2195545762864761E-004
  0.18855000000000000          3.2182971037574953E-004
  0.18940000000000001          3.2003477428396395E-004
  0.19024999999999997          3.1645451821809276E-004
  0.19109999999999999          3.1097836278594522E-004
  0.19195000000000001          3.0350303226834685E-004
  0.19279999999999997          2.9393380196936772E-004
  0.19364999999999999          2.8218614708633207E-004
  0.19450000000000001          2.6818710140263106E-004
  0.19534999999999997          2.5187716458240387E-004
  0.19619999999999999          2.3321117190540949E-004
  0.19705000000000000          2.1216019120825065E-004
  0.19789999999999996          1.8871235700388843E-004
  0.19874999999999998          1.6287436615472956E-004
  0.19960000000000000          1.3467247156489365E-004
  0.20044999999999996          1.0415327897523655E-004
  0.20129999999999998          7.1384787393947318E-005
  0.20215000000000000          3.6456331386013843E-005
  0.20300000000000001         -5.2023049411512235E-007
  0.20384999999999998         -3.9411095854856251E-005
  0.20469999999999999         -8.0060438041361595E-005
  0.20555000000000001         -1.2229052082846670E-004
  0.20639999999999997         -1.6590261093446995E-004
  0.20724999999999999         -2.1067765860378283E-004
  0.20810000000000001         -2.5637742147520089E-004
  0.20894999999999997         -3.0274592860238768E-004
  0.20979999999999999         -3.4951103734755912E-004
  0.21065000000000000         -3.9638631396923352E-004
  0.21149999999999997         -4.4307305692915767E-004
  0.21234999999999998         -4.8926274036961660E-004
  0.21320000000000000         -5.3463937295172056E-004
  0.21404999999999996         -5.7888222512013560E-004
  0.21489999999999998         -6.2166860741008113E-004
  0.21575000000000000         -6.6267685740866648E-004
  0.21659999999999996         -7.0158922895081574E-004
  0.21744999999999998         -7.3809506257927935E-004
  0.21829999999999999         -7.7189378853014564E-004
  0.21915000000000001         -8.0269800360779735E-004
  0.21999999999999997         -8.3023647068588928E-004
  0.22084999999999999         -8.5425689331651491E-004
  0.22170000000000001         -8.7452885088237071E-004
  0.22254999999999997         -8.9084614871746959E-004
  0.22339999999999999         -9.0302958424942083E-004
  0.22425000000000000         -9.1092869423278647E-004
  0.22509999999999997         -9.1442385565677193E-004
  0.22594999999999998         -9.1342792987269791E-004
  0.22680000000000000         -9.0788715103858433E-004
  0.22764999999999996         -8.9778282670330441E-004
  0.22849999999999998         -8.8313093039249415E-004
  0.22935000000000000         -8.6398317246799054E-004
  0.23019999999999996         -8.4042627638423128E-004
  0.23104999999999998         -8.1258222063482102E-004
  0.23190000000000000         -7.8060620724745616E-004
  0.23275000000000001         -7.4468656438718580E-004
  0.23359999999999997         -7.0504220588206749E-004
  0.23444999999999999         -6.6192138714342582E-004
  0.23530000000000001         -6.1559932669039879E-004
  0.23614999999999997         -5.6637543268031685E-004
  0.23699999999999999         -5.1457069155549429E-004
  0.23785000000000001         -4.6052464051570761E-004
  0.23869999999999997         -4.0459223455982578E-004
  0.23954999999999999         -3.4714056368758149E-004
  0.24040000000000000         -2.8854591506184089E-004
  0.24124999999999996         -2.2918919717605351E-004
  0.24209999999999998         -1.6945325235172889E-004
  0.24295000000000000         -1.0971906734923143E-004
  0.24379999999999996         -5.0362888771731541E-005
  0.24464999999999998          8.2482797159873241E-006
  0.24550000000000000          6.5758419623124703E-005
  0.24634999999999996          1.2182677356231760E-004
  0.24719999999999998          1.7612932396860945E-004
  0.24804999999999999          2.2836296956123928E-004
  0.24890000000000001          2.7824666161636093E-004
  0.24974999999999997          3.2552388567797717E-004
  0.25059999999999999          3.6996426987060001E-004
  0.25145000000000001          4.1136507474025344E-004
  0.25229999999999997          4.4955226105498051E-004
  0.25314999999999999          4.8438142710337695E-004
  0.25400000000000000          5.1573797518185546E-004
  0.25484999999999997          5.4353745673598928E-004
  0.25569999999999998          5.6772529643185697E-004
  0.25655000000000000          5.8827618933201945E-004
  0.25739999999999996          6.0519345982022580E-004
  0.25824999999999998          6.1850820312346578E-004
  0.25910000000000000          6.2827781314400992E-004
  0.25994999999999996          6.3458424008773365E-004
  0.26079999999999998          6.3753261685887215E-004
  0.26164999999999999          6.3724915208806002E-004
  0.26249999999999996          6.3387933323202992E-004
  0.26334999999999997          6.2758541401717607E-004
  0.26419999999999999          6.1854477632780538E-004
  0.26505000000000001          6.0694684484645649E-004
  0.26589999999999997          5.9299160562664450E-004
  0.26674999999999999          5.7688677116840429E-004
  0.26760000000000000          5.5884570259375713E-004
  0.26844999999999997          5.3908520646847721E-004
  0.26929999999999998          5.1782334978418951E-004
  0.27015000000000000          4.9527752141124255E-004
  0.27099999999999996          4.7166234668926597E-004
  0.27184999999999998          4.4718818425214019E-004
  0.27270000000000000          4.2205915474071147E-004
  0.27354999999999996          3.9647203711102561E-004
  0.27439999999999998          3.7061467476270547E-004
  0.27524999999999999          3.4466508154556335E-004
  0.27609999999999996          3.1879017849138839E-004
  0.27694999999999997          2.9314529096596126E-004
  0.27779999999999999          2.6787342986899198E-004
  0.27865000000000001          2.4310480436725838E-004
  0.27949999999999997          2.1895666172769382E-004
  0.28034999999999999          1.9553297682407814E-004
  0.28120000000000001          1.7292463902181308E-004
  0.28204999999999997          1.5120954571962256E-004
  0.28289999999999998          1.3045290921038315E-004
  0.28375000000000000          1.1070764689824340E-004
  0.28459999999999996          9.2014774438368811E-005
  0.28544999999999998          7.4404081233470554E-005
  0.28630000000000000          5.7894853816986261E-005
  0.28714999999999996          4.2496353513573166E-005
  0.28799999999999998          2.8208877275729676E-005
  0.28885000000000000          1.5024238148312757E-005
  0.28969999999999996          2.9266996289101397E-006
  0.29054999999999997         -8.1061414538585921E-006
  0.29139999999999999         -1.8102716294865531E-005
  0.29224999999999995         -2.7096483169325251E-005
  0.29309999999999997         -3.5125420471449013E-005
  0.29394999999999999         -4.2230935020812946E-005
  0.29480000000000001         -4.8457483959579341E-005
  0.29564999999999997         -5.3851782042895506E-005
  0.29649999999999999         -5.8462081890058615E-005
  0.29735000000000000         -6.2337720575843795E-005
  0.29819999999999997         -6.5528605343879840E-005
  0.29904999999999998         -6.8084540349826862E-005
  0.29990000000000000         -7.0054957917539917E-005
  0.30074999999999996         -7.1488535853041414E-005
  0.30159999999999998         -7.2432782698727920E-005
  0.30245000000000000         -7.2933750878969314E-005
  0.30329999999999996         -7.3035924575850215E-005
  0.30414999999999998         -7.2781864813226002E-005
  0.30499999999999999         -7.2212165132685675E-005
  0.30584999999999996         -7.1365233680605863E-005
  0.30669999999999997         -7.0277350957819126E-005
  0.30754999999999999         -6.8982495042090679E-005
  0.30840000000000001         -6.7512348577543281E-005
  0.30924999999999997         -6.5896283567461349E-005
  0.31009999999999999         -6.4161396289520145E-005
  0.31095000000000000         -6.2332515543271971E-005
  0.31179999999999997         -6.0432277280665496E-005
  0.31264999999999998         -5.8481149185154625E-005
  0.31350000000000000         -5.6497523870931374E-005
  0.31434999999999996         -5.4497812496599057E-005
  0.31519999999999998         -5.2496526852443508E-005
  0.31605000000000000         -5.0506343261888329E-005
  0.31689999999999996         -4.8538290514541814E-005
  0.31774999999999998         -4.6601767652301131E-005
  0.31859999999999999         -4.4704673060937412E-005
  0.31944999999999996         -4.2853549724800990E-005
  0.32029999999999997         -4.1053661465068579E-005
  0.32114999999999999         -3.9309077010680906E-005
  0.32199999999999995         -3.7622817548072616E-005
  0.32284999999999997         -3.5996956539571975E-005
  0.32369999999999999         -3.4432696356736934E-005
  0.32455000000000001         -3.2930482433772704E-005
  0.32539999999999997         -3.1490082692732577E-005
  0.32624999999999998         -3.0110728476179517E-005
  0.32710000000000000         -2.8791186769113405E-005
  0.32794999999999996         -2.7529830273587865E-005
  0.32879999999999998         -2.6324760295574288E-005
  0.32965000000000000         -2.5173887991768680E-005
  0.33049999999999996         -2.4075009995735985E-005
  0.33134999999999998         -2.3025881523765754E-005
  0.33220000000000000         -2.2024303310445246E-005
  0.33304999999999996         -2.1068155843282464E-005
  0.33389999999999997         -2.0155478839837182E-005
  0.33474999999999999         -1.9284509078956308E-005
  0.33559999999999995         -1.8453687940093947E-005
  0.33644999999999997         -1.7661732521740659E-005
  0.33729999999999999         -1.6907629694557716E-005
  0.33815000000000001         -1.6190631815160594E-005
  0.33899999999999997         -1.5510300964257197E-005
  0.33984999999999999         -1.4866490347512258E-005
  0.34070000000000000         -1.4259352841297211E-005
  0.34154999999999996         -1.3689316651225627E-005
  0.34239999999999998         -1.3157128849254721E-005
  0.34325000000000000         -1.2663808468964149E-005