 -0.12000000000000000          0.0000000000000000
 -0.11914999999999999          0.0000000000000000
 -0.11830000000000000          0.0000000000000000
 -0.11745000000000000          0.0000000000000000
 -0.11660000000000000          0.0000000000000000
 -0.11574999999999999          0.0000000000000000
 -0.11490000000000000          0.0000000000000000
 -0.11405000000000000          0.0000000000000000
 -0.11320000000000000          0.0000000000000000
 -0.11234999999999999          0.0000000000000000
 -0.11150000000000000          0.0000000000000000
 -0.11065000000000000         -2.6635585623355923E-056
 -0.10979999999999999         -8.5782233451045009E-045
 -0.10894999999999999         -2.1241931598355324E-043
 -0.10810000000000000         -2.6613556827871838E-042
 -0.10725000000000000         -2.2402489102168438E-041
 -0.10639999999999999         -1.4245373490794631E-040
 -0.10554999999999999         -7.2883643552813539E-040
 -0.10470000000000000         -3.1185698984644674E-039
 -0.10385000000000000         -1.1445541772856591E-038
 -0.10299999999999999         -3.6642066126322019E-038
 -0.10214999999999999         -1.0341826020463276E-037
 -0.10130000000000000         -2.5865927593296134E-037
 -0.10045000000000000         -5.7276556307729279E-037
  -9.9599999999999994E-002    -1.1118630069788417E-036
  -9.8750000000000004E-002    -1.8402890308280021E-036
  -9.7900000000000001E-002    -2.4010288012247950E-036
  -9.7049999999999997E-002    -1.7448941613964563E-036
  -9.6199999999999994E-002     2.3185128616586065E-036
  -9.5349999999999990E-002     1.3350326447886860E-035
  -9.4500000000000001E-002     3.5649658082886858E-035
  -9.3649999999999997E-002     7.1769115733167378E-035
  -9.2799999999999994E-002     1.1714488651387866E-034
  -9.1950000000000004E-002     1.5156994692160132E-034
  -9.1100000000000000E-002     1.2935780356686867E-034
  -9.0249999999999997E-002    -2.6225173282109695E-035
  -8.9399999999999993E-002    -4.1399862534237715E-034
  -8.8549999999999990E-002    -1.1176307470261285E-033
  -8.7700000000000000E-002    -2.1279970798478463E-033
  -8.6849999999999997E-002    -3.2247195450021497E-033
  -8.5999999999999993E-002    -3.8421630831747204E-033
  -8.5150000000000003E-002    -2.9841613078110961E-033
  -8.4300000000000000E-002     7.0574025385257103E-034
  -8.3449999999999996E-002     8.5869629627524166E-033
  -8.2600000000000007E-002     2.1270916324574309E-032
  -8.1749999999999989E-002     3.7477889958989128E-032
  -8.0900000000000000E-002     5.2713879199267130E-032
  -8.0049999999999996E-002     5.8272190338386519E-032
  -7.9199999999999993E-002     4.1365338471417308E-032
  -7.8350000000000003E-002    -1.2647443581670605E-032
  -7.7499999999999999E-002    -1.1513461296851826E-031
  -7.6649999999999996E-002    -2.6603719278831818E-031
  -7.5800000000000006E-002    -4.4380907095104562E-031
  -7.4949999999999989E-002    -5.9629436629984482E-031
  -7.4099999999999999E-002    -6.3715597963435431E-031
  -7.3249999999999996E-002    -4.5358556990156358E-031
  -7.2399999999999992E-002     6.9397083247549484E-032
  -7.1550000000000002E-002     1.0055400490754933E-030
  -7.0699999999999999E-002     2.3279465335808661E-030
  -6.9849999999999995E-002     3.8447740506717413E-030
  -6.9000000000000006E-002     5.1501252420760385E-030
  -6.8149999999999988E-002     5.6176708656884426E-030
  -6.7299999999999999E-002     4.4667558063587778E-030
  -6.6449999999999995E-002     9.2441571252164746E-031
  -6.5599999999999992E-002    -5.5105418714135707E-030
  -6.4750000000000002E-002    -1.4724778338972948E-029
  -6.3899999999999998E-002    -2.5630257844912740E-029
  -6.3049999999999995E-002    -3.5888536788038065E-029
  -6.2199999999999998E-002    -4.1853321345368267E-029
  -6.1350000000000002E-002    -3.8875916606724890E-029
  -6.0499999999999998E-002    -2.2092511194508414E-029
  -5.9650000000000002E-002     1.2260503616501399E-029
  -5.8799999999999998E-002     6.5084325725834474E-029
  -5.7950000000000002E-002     1.3245940868258368E-028
  -5.7099999999999998E-002     2.0394116793722375E-028
  -5.6249999999999994E-002     2.6173616995009831E-028
  -5.5400000000000005E-002     2.8147914243632217E-028
  -5.4550000000000001E-002     2.3528456760162193E-028
  -5.3699999999999998E-002     9.7456234991876289E-029
  -5.2849999999999994E-002    -1.4728613318127705E-028
  -5.2000000000000005E-002    -4.9402281967850921E-028
  -5.1150000000000001E-002    -9.0813936510860215E-028
  -5.0299999999999997E-002    -1.3188818707973501E-027
  -4.9449999999999994E-002    -1.6192370675984201E-027
  -4.8600000000000004E-002    -1.6751869857063934E-027
  -4.7750000000000001E-002    -1.3463876345193569E-027
  -4.6899999999999997E-002    -5.1799304975805629E-028
  -4.6049999999999994E-002     8.5965046210933985E-028
  -4.5200000000000004E-002     2.7300104799587891E-027
  -4.4350000000000001E-002     4.8977636037001248E-027
  -4.3499999999999997E-002     7.0151695636448838E-027
  -4.2649999999999993E-002     8.5971267454689937E-027
  -4.1800000000000004E-002     9.0704788732966739E-027
  -4.0950000000000000E-002     7.8567720458323862E-027
  -4.0099999999999997E-002     4.4799013196822847E-027
  -3.9249999999999993E-002    -1.3159946597761375E-027
  -3.8400000000000004E-002    -9.4556825866102882E-027
  -3.7550000000000000E-002    -1.9444990276863508E-026
  -3.6699999999999997E-002    -3.0314251741413221E-026
  -3.5850000000000007E-002    -4.0592829325704691E-026
  -3.5000000000000003E-002    -4.8311602655212508E-026
  -3.4150000000000000E-002    -5.1027883716463126E-026
  -3.3299999999999996E-002    -4.5894479677725723E-026
  -3.2450000000000007E-002    -2.9819460643143840E-026
  -3.1600000000000003E-002     1.9410785949657633E-028
  -3.0750000000000000E-002     4.6415008293168511E-026
  -2.9899999999999996E-002     1.0934592701383464E-025
  -2.9050000000000006E-002     1.8625667639553295E-025
  -2.8200000000000003E-002     2.6940385596214298E-025
  -2.7349999999999999E-002     3.4429327711571835E-025
  -2.6499999999999996E-002     3.8862947079021978E-025
  -2.5650000000000006E-002     3.7281713337873293E-025
  -2.4800000000000003E-002     2.6301190260640506E-025
  -2.3949999999999999E-002     2.7514591410194217E-026
  -2.3099999999999996E-002    -3.5318644981758399E-025
  -2.2250000000000006E-002    -8.7345940213851275E-025
  -2.1400000000000002E-002    -1.4886359148743045E-024
  -2.0549999999999999E-002    -2.1036048224862816E-024
  -1.9699999999999995E-002    -2.5686332858072333E-024
  -1.8850000000000006E-002    -2.6874424876725021E-024
  -1.8000000000000002E-002    -2.2420903644581100E-024
  -1.7149999999999999E-002    -1.0367699441566634E-024
  -1.6299999999999995E-002     1.0413788926678497E-024
  -1.5450000000000005E-002     3.9517088964860510E-024
  -1.4600000000000002E-002     7.4330111399259362E-024
  -1.3749999999999998E-002     1.0958707852523345E-023
  -1.2899999999999995E-002     1.3735581104963497E-023
  -1.2050000000000005E-002     1.4766406036437535E-023
  -1.1200000000000002E-002     1.2990016779839887E-023
  -1.0349999999999998E-002     7.4993083181204033E-024
  -9.5000000000000084E-003    -2.1806080715790681E-024
  -8.6500000000000049E-003    -1.5793314987256524E-023
  -7.8000000000000014E-003    -3.2091284511709795E-023
  -6.9499999999999978E-003    -4.8691768120616482E-023
  -6.1000000000000082E-003    -6.2125442500005558E-023
  -5.2500000000000047E-003    -6.8148808368988645E-023
  -4.4000000000000011E-003    -6.2351846977874727E-023
  -3.5499999999999976E-003    -4.1045520973865695E-023
  -2.7000000000000079E-003    -2.3438221555286975E-024
  -1.8500000000000044E-003     5.2718190477815964E-023
  -1.0000000000000009E-003     1.1925794878678400E-022
  -1.4999999999999736E-004     1.8807815864556613E-022
   6.9999999999999230E-004     2.4593659781475823E-022
   1.5499999999999958E-003     2.7675975086176262E-022
   2.3999999999999994E-003     2.6390464508216510E-022
   3.2500000000000029E-003     1.9336378075438072E-022
   4.0999999999999925E-003     5.7619429878272208E-023
   4.9499999999999961E-003    -1.4045327002228702E-022
   5.7999999999999996E-003    -3.8439818480423124E-022
   6.6499999999999893E-003    -6.4262187501529601E-022
   7.5000000000000067E-003    -8.6936047008845643E-022
   8.3499999999999963E-003    -1.0088586836295447E-021
   9.1999999999999860E-003    -1.0030099165167138E-021
   1.0050000000000003E-002    -8.0209501360357936E-022
   1.0899999999999993E-002    -3.7751063549903795E-022
   1.1750000000000010E-002     2.6542790353947832E-022
   1.2600000000000000E-002     1.0771783044695187E-021
   1.3449999999999990E-002     1.9589817414554917E-021
   1.4300000000000007E-002     2.7659968322581640E-021
   1.5149999999999997E-002     3.3205083782216427E-021
   1.5999999999999986E-002     3.4357807927514129E-021
   1.6850000000000004E-002     2.9491967278717901E-021
   1.7699999999999994E-002     1.7610368107193189E-021
   1.8549999999999983E-002    -1.2700574281062766E-022
   1.9400000000000001E-002    -2.5810436835973970E-021
   2.0249999999999990E-002    -5.3205544829797806E-021
   2.1100000000000008E-002    -7.9274153593234679E-021
   2.1949999999999997E-002    -9.8839116518109663E-021
   2.2799999999999987E-002    -1.0640361213767352E-020
   2.3650000000000004E-002    -9.7081148318058804E-021
   2.4499999999999994E-002    -6.7672689313388462E-021
   2.5349999999999984E-002    -1.7725901984416438E-021
   2.6200000000000001E-002     4.9620562788839136E-021
   2.7049999999999991E-002     1.2722652026685540E-020
   2.7900000000000008E-002     2.0416418100691015E-020
   2.8749999999999998E-002     2.6667235145071027E-020
   2.9599999999999987E-002     2.9987338651160857E-020
   3.0450000000000005E-002     2.9012717045157384E-020
   3.1299999999999994E-002     2.2776179789211162E-020
   3.2149999999999984E-002     1.0978141506483431E-020
   3.3000000000000002E-002    -5.7930489099306195E-021
   3.3849999999999991E-002    -2.5943094225379866E-020
   3.4700000000000009E-002    -4.6899133458359488E-020
   3.5549999999999998E-002    -6.5314172106777692E-020
   3.6399999999999988E-002    -7.7452127640926338E-020
   3.7250000000000005E-002    -7.9728224598800042E-020
   3.8099999999999995E-002    -6.9350076534446995E-020
   3.8949999999999985E-002    -4.4971443458094095E-020
   3.9800000000000002E-002    -7.2511662446454963E-021
   4.0649999999999992E-002     4.0795987022498326E-020
   4.1500000000000009E-002     9.3761477637701490E-020
   4.2349999999999999E-002     1.4419146374089288E-019
   4.3199999999999988E-002     1.8334610358003380E-019
   4.4050000000000006E-002     2.0233420153381833E-019
   4.4899999999999995E-002     1.9351717368632538E-019
   4.5749999999999985E-002     1.5201084144936018E-019
   4.6600000000000003E-002     7.7054940130621599E-020
   4.7449999999999992E-002    -2.6985268126543500E-020
   4.8299999999999982E-002    -1.5022460705714541E-019
   4.9149999999999999E-002    -2.7766263358492779E-019
   4.9999999999999989E-002    -3.9047665713142596E-019
   5.0850000000000006E-002    -4.6817680245732882E-019
   5.1699999999999996E-002    -4.9144506661771670E-019
   5.2549999999999986E-002    -4.4534806030378291E-019
   5.3400000000000003E-002    -3.2249530319614886E-019
   5.4249999999999993E-002    -1.2563688390066972E-019
   5.5099999999999982E-002     1.3080956348035914E-019
   5.5950000000000000E-002     4.2073625113516889E-019
   5.6799999999999989E-002     7.0807511131747080E-019
   5.7650000000000007E-002     9.5034519566066462E-019
   5.8499999999999996E-002     1.1037743223481981E-018
   5.9349999999999986E-002     1.1295042743820003E-018
   6.0200000000000004E-002     1.0000896912616473E-018
   6.1049999999999993E-002     7.0540370164117745E-019
   6.1899999999999983E-002     2.5696258840660600E-019
   6.2750000000000000E-002    -3.1019639453587028E-019
   6.3599999999999990E-002    -9.3868345449972578E-019
   6.4450000000000007E-002    -1.5532975227647311E-018
   6.5299999999999997E-002    -2.0686642995454782E-018
   6.6149999999999987E-002    -2.3993774025825140E-018
   6.7000000000000004E-002    -2.4714758492305377E-018
   6.7849999999999994E-002    -2.2339586358786717E-018
   6.8699999999999983E-002    -1.6686151119247839E-018
   6.9550000000000001E-002    -7.9677292199446570E-019
   7.0399999999999990E-002     3.1819528348465446E-019
   7.1249999999999980E-002     1.5734558245761208E-018
   7.2099999999999997E-002     2.8347916386867500E-018
   7.2949999999999987E-002     3.9488162861466439E-018
   7.3800000000000004E-002     4.7597139574774485E-018
   7.4649999999999994E-002     5.1269937663495360E-018
   7.5499999999999984E-002     4.9442159128282639E-018
   7.6350000000000001E-002     4.1548997792324101E-018
   7.7199999999999991E-002     2.7649650105373071E-018
   7.8049999999999981E-002     8.4896040037623221E-019
   7.8899999999999998E-002    -1.4500304688012857E-018
   7.9749999999999988E-002    -3.9282539108391405E-018
   8.0600000000000005E-002    -6.3362199927958045E-018
   8.1449999999999995E-002    -8.3998103658258465E-018
   8.2299999999999984E-002    -9.8461909433906133E-018
   8.3150000000000002E-002    -1.0432551071083791E-017
   8.3999999999999991E-002    -9.9746365317249002E-018
   8.4849999999999981E-002    -8.3738756728791480E-018
   8.5699999999999998E-002    -5.6366308954425106E-018
   8.6549999999999988E-002    -1.8891357732057392E-018
   8.7400000000000005E-002     2.6215258889216999E-018
   8.8249999999999995E-002     7.5338708853576626E-018
   8.9099999999999985E-002     1.2395666698692155E-017
   8.9950000000000002E-002     1.6693292322693955E-017
   9.0799999999999992E-002     1.9896922519948452E-017
   9.1649999999999981E-002     2.1510152273960854E-017
   9.2499999999999999E-002     2.1124920450132433E-017
   9.3349999999999989E-002     1.8475116808773979E-017
   9.4200000000000006E-002     1.3483341850664502E-017
   9.5049999999999996E-002     6.2993815768344778E-018
   9.5899999999999985E-002    -2.6801272750151690E-018
   9.6750000000000003E-002    -1.2815210795919729E-017
   9.7599999999999992E-002    -2.3241409753057276E-017
   9.8449999999999982E-002    -3.2925110706872334E-017
   9.9299999999999999E-002    -4.0734104872904862E-017
  0.10014999999999999         -4.5540393014202353E-017
  0.10099999999999998         -4.6331016093381283E-017
  0.10185000000000000         -4.2337420441614994E-017
  0.10269999999999999         -3.3153868255902266E-017
  0.10355000000000000         -1.8850340112550478E-017
  0.10439999999999999         -5.1869286685718525E-020
  0.10524999999999998          2.2023361794513585E-017
  0.10610000000000000          4.5579752707190614E-017
  0.10694999999999999          6.8339331365232637E-017
  0.10779999999999998          8.7666830879783639E-017
  0.10865000000000000          1.0082188539899909E-016
  0.10949999999999999          1.0523435288469148E-016
  0.11035000000000000          9.8810389245071073E-017
  0.11119999999999999          8.0271532268833436E-017
  0.11204999999999998          4.9431957653250142E-017
  0.11290000000000000          7.4521470446327370E-018
  0.11374999999999999         -4.3065579673973356E-017
  0.11459999999999998         -9.8080189985363350E-017
  0.11545000000000000         -1.5231701112646818E-016
  0.11629999999999999         -1.9962605756221682E-016
  0.11715000000000000         -2.3350379527649210E-016
  0.11799999999999999         -2.4777350187763434E-016
  0.11884999999999998         -2.3729467634692261E-016
  0.11970000000000000         -1.9875621614360797E-016
  0.12054999999999999         -1.3127296104307554E-016
  0.12139999999999998         -3.6961739676948568E-017
  0.12225000000000000          7.8776396131640706E-017
  0.12309999999999999          2.0733759864691624E-016
  0.12395000000000000          3.3728279225601343E-016
  0.12479999999999999          4.5506003987099712E-016
  0.12564999999999998          5.4608291340466003E-016
  0.12650000000000000          5.9612474197717489E-016
  0.12734999999999999          5.9280007209067494E-016
  0.12819999999999998          5.2715298266156794E-016
  0.12905000000000000          3.9515538110216529E-016
  0.12989999999999999          1.9886211648120542E-016
  0.13074999999999998         -5.2738054426953135E-017
  0.13159999999999999         -3.4357224285391458E-016
  0.13245000000000001         -6.5106072590056335E-016
  0.13329999999999997         -9.4724017287992306E-016
  0.13414999999999999         -1.2007996708798481E-015
  0.13500000000000001         -1.3796118362401024E-015
  0.13584999999999997         -1.4539717872608421E-015
  0.13669999999999999         -1.3995868310715028E-015
  0.13755000000000001         -1.2012545367300985E-015
  0.13839999999999997         -8.5532101058754328E-016
  0.13924999999999998         -3.7203929401525670E-016
  0.14010000000000000          2.2354195244851960E-016
  0.14094999999999996          8.9185962342317150E-016
  0.14179999999999998          1.5804466656445596E-015
  0.14265000000000000          2.2277329698434974E-015
  0.14350000000000002          2.7672444925337975E-015
  0.14434999999999998          3.1333519102185858E-015
  0.14520000000000000          3.2677779655098503E-015
  0.14605000000000001          3.1269880736456792E-015
  0.14689999999999998          2.6860523314116862E-015
  0.14774999999999999          1.9461374995989476E-015
  0.14860000000000001          9.3608300342971544E-016
  0.14944999999999997         -2.8773565328391505E-016
  0.15029999999999999         -1.6414114025971239E-015
  0.15115000000000001         -3.0198930836969510E-015
  0.15199999999999997         -4.3034003631590262E-015
  0.15284999999999999         -5.3671220963032692E-015
  0.15370000000000000         -6.0920231342492010E-015
  0.15454999999999997         -6.3775644459914201E-015
  0.15539999999999998         -6.1500396163406858E-015
  0.15625000000000000         -5.3763986682838968E-015
  0.15709999999999996         -4.0660587167967852E-015
  0.15794999999999998         -2.2830240167629561E-015
  0.15880000000000000         -1.3536179444622259E-016
  0.15965000000000001          2.2218658068404641E-015
  0.16049999999999998          4.5998104483350988E-015
  0.16134999999999999          6.7920407497999525E-015
  0.16220000000000001          8.5850300634623008E-015
  0.16304999999999997          9.7831033652825693E-015
  0.16389999999999999          1.0227352686382247E-014
  0.16475000000000001          9.8116102337821590E-015
  0.16559999999999997          8.4992409014079142E-015
  0.16644999999999999          6.3334903325597695E-015
  0.16730000000000000          3.4404483729641042E-015
  0.16814999999999997          2.5940865634435063E-017
  0.16899999999999998         -3.6318029243134211E-015
  0.16985000000000000         -7.2106500925891595E-015
  0.17069999999999996         -1.0355993746305498E-014
  0.17154999999999998         -1.2726075556944019E-014
  0.17240000000000000         -1.4013714635569802E-014
  0.17325000000000002         -1.3983051441915901E-014
  0.17409999999999998         -1.2510495933608039E-014
  0.17494999999999999         -9.5879166736174349E-015
  0.17580000000000001         -5.3382039004457411E-015
  0.17664999999999997         -5.2740421611471548E-017
  0.17749999999999999          5.8613064825617465E-015
  0.17835000000000001          1.1880080498292481E-014
  0.17919999999999997          1.7399895921986134E-014
  0.18004999999999999          2.1792279208357569E-014
  0.18090000000000001          2.4455213140290103E-014
  0.18174999999999997          2.4870448711731444E-014
  0.18259999999999998          2.2660997044579787E-014
  0.18345000000000000          1.7661318866908105E-014
  0.18429999999999996          9.9259518703543042E-015
  0.18514999999999998         -2.1905096732288007E-016
  0.18600000000000000         -1.2206763699366445E-014
  0.18684999999999996         -2.5168660255324361E-014
  0.18769999999999998         -3.8033808121995445E-014
  0.18855000000000000         -4.9656461925247704E-014
  0.18940000000000001         -5.8797075068454701E-014
  0.19024999999999997         -6.4173250552378570E-014
  0.19109999999999999         -6.4770395830216411E-014
  0.19195000000000001         -5.9745091919075781E-014
  0.19279999999999997         -4.8601123377589682E-014
  0.19364999999999999         -3.1272711638887826E-014
  0.19450000000000001         -8.2168563398432137E-015
  0.19534999999999997          1.9696894074818226E-014
  0.19619999999999999          5.1022523237343438E-014
  0.19705000000000000          8.3931943908771763E-014
  0.19789999999999996          1.1621250863921363E-013
  0.19874999999999998          1.4546780329654716E-013
  0.19960000000000000          1.6925216769563747E-013
  0.20044999999999996          1.8527299804364433E-013
  0.20129999999999998          1.9157816523707088E-013
  0.20215000000000000          1.8667787097194755E-013
  0.20300000000000001          1.7005316624828706E-013
  0.20384999999999998          1.4194608575273664E-013
  0.20469999999999999          1.0380069330997079E-013
  0.20555000000000001          5.7879619313230350E-014
  0.20639999999999997          7.7729167384749708E-015
  0.20724999999999999         -4.2036562622977098E-014
  0.20810000000000001         -8.6459757290631369E-014
  0.20894999999999997         -1.1981957276495707E-013
  0.20979999999999999         -1.3615934254093437E-013
  0.21065000000000000         -1.3013631639543456E-013
  0.21149999999999997         -9.7522421439847154E-014
  0.21234999999999998         -3.4033485196857726E-014
  0.21320000000000000          6.0316680060905433E-014
  0.21404999999999996          1.8809995963487080E-013
  0.21489999999999998          3.4755512504646777E-013
  0.21575000000000000          5.3750688273429909E-013
  0.21659999999999996          7.4818263895499127E-013
  0.21744999999999998          9.7748829073134868E-013
  0.21829999999999999          1.2235878783428287E-012
  0.21915000000000001          1.4729202615456994E-012
  0.21999999999999997          1.7145971722010363E-012
  0.22084999999999999          1.9474948110567849E-012
  0.22170000000000001          2.1690048340897614E-012
  0.22254999999999997          2.3620951157237040E-012
  0.22339999999999999          2.5473238803069411E-012
  0.22425000000000000          2.7298455163544354E-012
  0.22509999999999997          2.8848620377715502E-012
  0.22594999999999998          3.0418791166692280E-012
  0.22680000000000000          3.2002590258393623E-012
  0.22764999999999996          3.4016105243306768E-012
  0.22849999999999998          3.6626769272077412E-012
  0.22935000000000000          4.0097363364986625E-012
  0.23019999999999996          4.4797290293943015E-012
  0.23104999999999998          5.0868148008558227E-012
  0.23190000000000000          5.8188661127172149E-012
  0.23275000000000001          6.6981765872034482E-012
  0.23359999999999997          7.7855803995986957E-012
  0.23444999999999999          9.0118271444254872E-012
  0.23530000000000001          1.0450614496042696E-011
  0.23614999999999997          1.2153163595401091E-011
  0.23699999999999999          1.4042667479548552E-011
  0.23785000000000001          1.5903604059413434E-011
  0.23869999999999997          1.8101615022062929E-011
  0.23954999999999999          2.0758172616334290E-011
  0.24040000000000000          2.3112310876745670E-011
  0.24124999999999996          2.5607814973632007E-011
  0.24209999999999998          2.8021960083791300E-011
  0.24295000000000000          3.0828467221699493E-011
  0.24379999999999996          3.3842097438376752E-011
  0.24464999999999998          3.6877448824593062E-011
  0.24550000000000000          4.0397281291915487E-011
  0.24634999999999996          4.3775862209955596E-011
  0.24719999999999998          4.7177689842621182E-011
  0.24804999999999999          5.1421756209068298E-011
  0.24890000000000001          5.5346407293059863E-011
  0.24974999999999997          6.0894060602694574E-011
  0.25059999999999999          6.5581643567358574E-011
  0.25145000000000001          6.9738352903494501E-011
  0.25229999999999997          7.5307612692501380E-011
  0.25314999999999999          8.1391681478823227E-011
  0.25400000000000000          8.5614485686912119E-011
  0.25484999999999997          9.1380688842634267E-011
  0.25569999999999998          9.5659295645662738E-011
  0.25655000000000000          1.0231780044533517E-010
  0.25739999999999996          1.0797507650235249E-010
  0.25824999999999998          1.1089106209177072E-010
  0.25910000000000000          1.1695877545538655E-010
  0.25994999999999996          1.2348027957153575E-010
  0.26079999999999998          1.2313955212866634E-010
  0.26164999999999999          1.2516989820764598E-010
  0.26249999999999996          1.2553455663012261E-010
  0.26334999999999997          1.2879207003146530E-010
  0.26419999999999999          1.3396847655575208E-010
  0.26505000000000001          1.3495532427646685E-010
  0.26589999999999997          1.2624231652383747E-010
  0.26674999999999999          1.1760261295402736E-010
  0.26760000000000000          1.2260855881057050E-010
  0.26844999999999997          1.2095681044493740E-010
  0.26929999999999998          1.3100791628354160E-010
  0.27015000000000000          1.2258146514038107E-010
  0.27099999999999996          1.0600157179495348E-010
  0.27184999999999998          9.6409411124595097E-011
  0.27270000000000000          8.3507498056006481E-011
  0.27354999999999996          7.8877469734546513E-011
  0.27439999999999998          8.2530513767994124E-011
  0.27524999999999999          9.2642677864792803E-011
  0.27609999999999996          8.0820888535542184E-011
  0.27694999999999997          5.8805282054949161E-011
  0.27779999999999999          3.9470867444985271E-011
  0.27865000000000001         -8.2544806967890519E-012
  0.27949999999999997         -7.4268791989834073E-011
  0.28034999999999999         -1.7304258769841147E-010
  0.28120000000000001         -2.2921257300095235E-010
  0.28204999999999997         -2.9057173254841734E-010
  0.28289999999999998         -3.2437053898052829E-010
  0.28375000000000000         -3.4480981913172546E-010
  0.28459999999999996         -3.8064876964561093E-010
  0.28544999999999998         -4.1245168142401551E-010
  0.28630000000000000         -4.7007640652468888E-010
  0.28714999999999996         -4.9672748224626597E-010
  0.28799999999999998         -5.3490491807510065E-010
  0.28885000000000000         -5.8777834387331743E-010
  0.28969999999999996         -6.5385303771249288E-010
  0.29054999999999997         -6.3895185530590395E-010
  0.29139999999999999         -6.9385238029574932E-010
  0.29224999999999995         -6.8736691727734433E-010
  0.29309999999999997         -6.9545229316557872E-010
  0.29394999999999999         -7.3917381467242570E-010
  0.29480000000000001         -8.0342392155519808E-010
  0.29564999999999997         -8.2104663880551779E-010
  0.29649999999999999         -8.7723149805404586E-010
  0.29735000000000000         -9.3648153690617027E-010
  0.29819999999999997         -9.3178262856678282E-010
  0.29904999999999998         -9.0266529910859760E-010
  0.29990000000000000         -8.4043603377859520E-010
  0.30074999999999996         -7.6917558643535544E-010
  0.30159999999999998         -7.1025201185439517E-010
  0.30245000000000000         -5.6457253732874366E-010
  0.30329999999999996         -4.1350763132668091E-010
  0.30414999999999998         -3.6070105138914373E-010
  0.30499999999999999         -3.2167569999963950E-010
  0.30584999999999996         -2.4845089731345198E-010
  0.30669999999999997         -2.0613236458861308E-010
  0.30754999999999999         -2.0394532962521910E-010
  0.30840000000000001         -1.1974121848678055E-010
  0.30924999999999997         -1.2883999425605929E-010
  0.31009999999999999         -5.3501442073255601E-011
  0.31095000000000000          8.9078433743339264E-011
  0.31179999999999997          1.8005746913809295E-010
  0.31264999999999998          3.0747335401502127E-010
  0.31350000000000000          4.5776282837549511E-010
  0.31434999999999996          6.0041517459633255E-010
  0.31519999999999998          7.5345652137652130E-010
  0.31605000000000000          9.3964195257111751E-010
  0.31689999999999996          1.0522882563549627E-009
  0.31774999999999998          1.1632187742324439E-009
  0.31859999999999999          1.2358959390016256E-009
  0.31944999999999996          1.3054818136888208E-009
  0.32029999999999997          1.3559935934791573E-009
  0.32114999999999999          1.3831100844436981E-009
  0.32199999999999995          1.3921158750773260E-009
  0.32284999999999997          1.3955493811338375E-009
  0.32369999999999999          1.3785669470387904E-009
  0.32455000000000001          1.3436926384112401E-009
  0.32539999999999997          1.3286976208951570E-009
  0.32624999999999998          1.2594338540268888E-009
  0.32710000000000000          1.2066719622745587E-009
  0.32794999999999996          1.1272222739911501E-009
  0.32879999999999998          9.8184426222472185E-010
  0.32965000000000000          9.0330129915705619E-010
  0.33049999999999996          7.4056821753544017E-010
  0.33134999999999998          4.9633736682282164E-010
  0.33220000000000000          3.3078352374096835E-010
  0.33304999999999996          1.9492104035443512E-010
  0.33389999999999997          7.6543262017025724E-012
  0.33474999999999999         -1.1154943989184159E-010
  0.33559999999999995         -2.5533147007840599E-010
  0.33644999999999997         -4.1720196858310238E-010
  0.33729999999999999         -4.4784429883614230E-010
  0.33815000000000001         -4.8348891599039739E-010
  0.33899999999999997         -4.4018481752412548E-010
  0.33984999999999999         -3.9539104450389343E-010
  0.34070000000000000         -2.3581105736700439E-010
  0.34154999999999996         -1.3421976969454268E-010
  0.34239999999999998         -2.2132700430078826E-010
  0.34325000000000000         -2.2324372191618188E-010