 -0.12000000000000000          0.0000000000000000
 -0.11914999999999999          0.0000000000000000
 -0.11830000000000000          0.0000000000000000
 -0.11745000000000000          0.0000000000000000
 -0.11660000000000000          0.0000000000000000
 -0.11574999999999999          0.0000000000000000
 -0.11490000000000000          0.0000000000000000
 -0.11405000000000000          0.0000000000000000
 -0.11320000000000000          0.0000000000000000
 -0.11234999999999999          0.0000000000000000
 -0.11150000000000000          0.0000000000000000
 -0.11065000000000000          1.7257782937005979E-041
 -0.10979999999999999          3.3903808732425272E-040
 -0.10894999999999999          3.4147401434750026E-039
 -0.10810000000000000          2.3437357427733438E-038
 -0.10725000000000000          1.2292254578094954E-037
 -0.10639999999999999          5.2357734503438013E-037
 -0.10554999999999999          1.8787165940880483E-036
 -0.10470000000000000          5.8115438035626593E-036
 -0.10385000000000000          1.5716876456655531E-035
 -0.10299999999999999          3.7407476990930343E-035
 -0.10214999999999999          7.8241353666567358E-035
 -0.10130000000000000          1.4184518366898136E-034
 -0.10045000000000000          2.1397400696420123E-034
  -9.9599999999999994E-002     2.3503623022832728E-034
  -9.8750000000000004E-002     5.9393665638387626E-035
  -9.7900000000000001E-002    -5.8532509929743246E-034
  -9.7049999999999997E-002    -2.1011852265125955E-033
  -9.6199999999999994E-002    -4.9141606160944197E-033
  -9.5349999999999990E-002    -9.1599463326564533E-033
  -9.4500000000000001E-002    -1.4067301301973812E-032
  -9.3649999999999997E-002    -1.7029728902064578E-032
  -9.2799999999999994E-002    -1.2569179623430743E-032
  -9.1950000000000004E-002     8.2398362694414910E-033
  -9.1100000000000000E-002     5.6848801049255247E-032
  -9.0249999999999997E-002     1.4337827872679334E-031
  -8.9399999999999993E-002     2.6838524149067106E-031
  -8.8549999999999990E-002     4.0967672525599277E-031
  -8.7700000000000000E-002     5.0580449871274494E-031
  -8.6849999999999997E-002     4.4166709696656616E-031
  -8.5999999999999993E-002     4.6644034757518018E-032
  -8.5150000000000003E-002    -8.7952868582770760E-031
  -8.4300000000000000E-002    -2.4960543192779395E-030
  -8.3449999999999996E-002    -4.7933173388279007E-030
  -8.2600000000000007E-002    -7.4116047464998503E-030
  -8.1749999999999989E-002    -9.4391875701098266E-030
  -8.0900000000000000E-002    -9.2643691722215565E-030
  -8.0049999999999996E-002    -4.6024229955507751E-030
  -7.9199999999999993E-002     7.1477939951442599E-030
  -7.8350000000000003E-002     2.8066420838173287E-029
  -7.7499999999999999E-002     5.8315021832643971E-029
  -7.6649999999999996E-002     9.4265498057197032E-029
  -7.5800000000000006E-002     1.2651119176201263E-028
  -7.4949999999999989E-002     1.3846122580711490E-028
  -7.4099999999999999E-002     1.0656567082334164E-028
  -7.3249999999999996E-002     3.4339825072801506E-030
  -7.2399999999999992E-002    -1.9498872471228436E-028
  -7.1550000000000002E-002    -4.9762532804068669E-028
  -7.0699999999999999E-002    -8.8254500440303148E-028
  -6.9849999999999995E-002    -1.2799370367223046E-027
  -6.9000000000000006E-002    -1.5588004545936830E-027
  -6.8149999999999988E-002    -1.5247261553303505E-027
  -6.7299999999999999E-002    -9.3766966325989277E-028
  -6.6449999999999995E-002     4.4179523509760157E-028
  -6.5599999999999992E-002     2.7727042676005792E-027
  -6.4750000000000002E-002     6.0227487221756241E-027
  -6.3899999999999998E-002     9.8399668695344051E-027
  -6.3049999999999995E-002     1.3435556821379304E-026
  -6.2199999999999998E-002     1.5521535873187159E-026
  -6.1350000000000002E-002     1.4358766371579721E-026
  -6.0499999999999998E-002     7.9733717404454987E-027
  -5.9650000000000002E-002    -5.4134116477274615E-027
  -5.8799999999999998E-002    -2.6730842004387866E-026
  -5.7950000000000002E-002    -5.5226411659009864E-026
  -5.7099999999999998E-002    -8.7581643393331806E-026
  -5.6249999999999994E-002    -1.1719269552553874E-025
  -5.5400000000000005E-002    -1.3391739858070989E-025
  -5.4550000000000001E-002    -1.2464162440353795E-025
  -5.3699999999999998E-002    -7.5003480206250367E-026
  -5.2849999999999994E-002     2.7499270612707884E-026
  -5.2000000000000005E-002     1.8903046168554888E-025
  -5.1150000000000001E-002     4.0394499397662110E-025
  -5.0299999999999997E-002     6.4917925465857012E-025
  -4.9449999999999994E-002     8.7987059500505626E-025
  -4.8600000000000004E-002     1.0280233694743496E-024
  -4.7750000000000001E-002     1.0062672176840981E-024
  -4.6899999999999997E-002     7.1860172579031303E-025
  -4.6049999999999994E-002     7.9308334029854114E-026
  -4.5200000000000004E-002    -9.6016464042543793E-025
  -4.4350000000000001E-002    -2.3785816525394631E-024
  -4.3499999999999997E-002    -4.0513650396960810E-024
  -4.2649999999999993E-002    -5.7236349819703584E-024
  -4.1800000000000004E-002    -6.9996923735785638E-024
  -4.0950000000000000E-002    -7.3599675918264855E-024
  -4.0099999999999997E-002    -6.2156316575502901E-024
  -3.9249999999999993E-002    -3.0075134840207817E-024
  -3.8400000000000004E-002     2.6509042983683190E-024
  -3.7550000000000000E-002     1.0796718955163609E-023
  -3.6699999999999997E-002     2.0929999261170235E-023
  -3.5850000000000007E-002     3.1851734140098482E-023
  -3.5000000000000003E-002     4.1575508382832319E-023
  -3.4150000000000000E-002     4.7367697256201415E-023
  -3.3299999999999996E-002     4.5968874116816279E-023
  -3.2450000000000007E-002     3.4034468961459603E-023
  -3.1600000000000003E-002     8.8035215165410494E-024
  -3.0750000000000000E-002    -3.1039770346905204E-023
  -2.9899999999999996E-002    -8.4403500295251909E-023
  -2.9050000000000006E-002    -1.4687835264524565E-022
  -2.8200000000000003E-002    -2.1009176937473595E-022
  -2.7349999999999999E-002    -2.6157575824066494E-022
  -2.6499999999999996E-002    -2.8540263210694312E-022
  -2.5650000000000006E-002    -2.6379753069399717E-022
  -2.4800000000000003E-002    -1.7983167525404757E-022
  -2.3949999999999999E-002    -2.1128861924044996E-023
  -2.3099999999999996E-002     2.1570749381449490E-022
  -2.2250000000000006E-002     5.2050330629114087E-022
  -2.1400000000000002E-002     8.6557404790170060E-022
  -2.0549999999999999E-002     1.2034580838288434E-021
  -1.9699999999999995E-002     1.4674406839701443E-021
  -1.8850000000000006E-002     1.5759031063429340E-021
  -1.8000000000000002E-002     1.4412291588057663E-021
  -1.7149999999999999E-002     9.8343702204615990E-022
  -1.6299999999999995E-002     1.4790864622388993E-022
  -1.5450000000000005E-002    -1.0744038046683825E-021
  -1.4600000000000002E-002    -2.6269736841413750E-021
  -1.3749999999999998E-002    -4.3715489417590545E-021
  -1.2899999999999995E-002    -6.0801783789368072E-021
  -1.2050000000000005E-002    -7.4398943343321797E-021
  -1.1200000000000002E-002    -8.0739527824442881E-021
  -1.0349999999999998E-002    -7.5820810664516844E-021
  -9.5000000000000084E-003    -5.5997989909582523E-021
  -8.6500000000000049E-003    -1.8736685889687501E-021
  -7.8000000000000014E-003     3.6544763356379118E-021
  -6.9499999999999978E-003     1.0765145944044486E-020
  -6.1000000000000082E-003     1.8894959443061127E-020
  -5.2500000000000047E-003     2.7103047189736099E-020
  -4.4000000000000011E-003     3.4086866149113874E-020
  -3.5499999999999976E-003     3.8261896898694871E-020
  -2.7000000000000079E-003     3.7914232495052454E-020
  -1.8500000000000044E-003     3.1426533897052217E-020
  -1.0000000000000009E-003     1.7566394666248095E-020
  -1.4999999999999736E-004    -4.1870480504815282E-021
   6.9999999999999230E-004    -3.3316319992704712E-020
   1.5499999999999958E-003    -6.7988694589247837E-020
   2.3999999999999994E-003    -1.0488771507931037E-019
   3.2500000000000029E-003    -1.3921365259984913E-019
   4.0999999999999925E-003    -1.6490706798828354E-019
   4.9499999999999961E-003    -1.7513329240739761E-019
   5.7999999999999996E-003    -1.6303830434606162E-019
   6.6499999999999893E-003    -1.2275032120004561E-019
   7.5000000000000067E-003    -5.0557229378135681E-020
   8.3499999999999963E-003     5.3856725682775925E-020
   9.1999999999999860E-003     1.8627491935751674E-019
   1.0050000000000003E-002     3.3710672341318611E-019
   1.0899999999999993E-002     4.9104912667647842E-019
   1.1750000000000010E-002     6.2745065879749706E-019
   1.2600000000000000E-002     7.2153742229359719E-019
   1.3449999999999990E-002     7.4658347038182173E-019
   1.4300000000000007E-002     6.7700454487291051E-019
   1.5149999999999997E-002     4.9221662418306880E-019
   1.5999999999999986E-002     1.8095314429575641E-019
   1.6850000000000004E-002    -2.5441607446018411E-019
   1.7699999999999994E-002    -7.9414693148963966E-019
   1.8549999999999983E-002    -1.3986309520089653E-018
   1.9400000000000001E-002    -2.0078363351458395E-018
   2.0249999999999990E-002    -2.5432872307757311E-018
   2.1100000000000008E-002    -2.9130249837560385E-018
   2.1949999999999997E-002    -3.0197053148070526E-018
   2.2799999999999987E-002    -2.7716354023514279E-018
   2.3650000000000004E-002    -2.0961022342376397E-018
   2.4499999999999994E-002    -9.5389256505495547E-019
   2.5349999999999984E-002     6.4653471362333611E-019
   2.6200000000000001E-002     2.6371123838124422E-018
   2.7049999999999991E-002     4.8825340531136862E-018
   2.7900000000000008E-002     7.1789812992399061E-018
   2.8749999999999998E-002     9.2609529745229252E-018
   2.9599999999999987E-002     1.0817385385639324E-017
   3.0450000000000005E-002     1.1517348835944100E-017
   3.1299999999999994E-002     1.1044553734367508E-017
   3.2149999999999984E-002     9.1386101157514386E-018
   3.3000000000000002E-002     5.6397260184738557E-018
   3.3849999999999991E-002     5.3236103715987604E-019
   3.4700000000000009E-002    -6.0175178116297905E-018
   3.5549999999999998E-002    -1.3637346572113811E-017
   3.6399999999999988E-002    -2.1740654045814004E-017
   3.7250000000000005E-002    -2.9542260531353072E-017
   3.8099999999999995E-002    -3.6099176351598996E-017
   3.8949999999999985E-002    -4.0378074848581309E-017
   3.9800000000000002E-002    -4.1347515459404692E-017
   4.0649999999999992E-002    -3.8089935307509690E-017
   4.1500000000000009E-002    -2.9925342677432333E-017
   4.2349999999999999E-002    -1.6535860376905389E-017
   4.3199999999999988E-002     1.9218467099310290E-018
   4.4050000000000006E-002     2.4730270880468747E-017
   4.4899999999999995E-002     5.0564755820538899E-017
   4.5749999999999985E-002     7.7499293247320778E-017
   4.6600000000000003E-002     1.0307349466562442E-016
   4.7449999999999992E-002     1.2442513040263687E-016
   4.8299999999999982E-002     1.3848715480519630E-016
   4.9149999999999999E-002     1.4224161959101077E-016
   4.9999999999999989E-002     1.3301657922466386E-016
   5.0850000000000006E-002     1.0880571738472389E-016
   5.1699999999999996E-002     6.8585657905090381E-017
   5.2549999999999986E-002     1.2602076409796253E-017
   5.3400000000000003E-002    -5.7405549762084696E-017
   5.4249999999999993E-002    -1.3806995807118056E-016
   5.5099999999999982E-002    -2.2437910366173541E-016
   5.5950000000000000E-002    -3.0979619784712381E-016
   5.6799999999999989E-002    -3.8652906672966708E-016
   5.7650000000000007E-002    -4.4595157587719932E-016
   5.8499999999999996E-002    -4.7916735758132893E-016
   5.9349999999999986E-002    -4.7769614983470549E-016
   6.0200000000000004E-002    -4.3424896110749148E-016
   6.1049999999999993E-002    -3.4354864748272151E-016
   6.1899999999999983E-002    -2.0314210437574481E-016
   6.2750000000000000E-002    -1.4142075276110690E-017
   6.3599999999999990E-002     2.1816693476383419E-016
   6.4450000000000007E-002     4.8392728837609960E-016
   6.5299999999999997E-002     7.6857632729696390E-016
   6.6149999999999987E-002     1.0530418312147824E-015
   6.7000000000000004E-002     1.3143121268435607E-015
   6.7849999999999994E-002     1.5264100480988057E-015
   6.8699999999999983E-002     1.6617765458929515E-015
   6.9550000000000001E-002     1.6930476404849309E-015
   7.0399999999999990E-002     1.5951710783801809E-015
   7.1249999999999980E-002     1.3477794567851247E-015
   7.2099999999999997E-002     9.3769960123133151E-016
   7.2949999999999987E-002     3.6144400563784224E-016
   7.3800000000000004E-002    -3.7250300402096198E-016
   7.4649999999999994E-002    -1.2418111411746010E-015
   7.5499999999999984E-002    -2.2090694926563521E-015
   7.6350000000000001E-002    -3.2214105159941796E-015
   7.7199999999999991E-002    -4.2112056655198199E-015
   7.8049999999999981E-002    -5.0979962225275075E-015
   7.8899999999999998E-002    -5.7917834149756784E-015
   7.9749999999999988E-002    -6.1977085719647509E-015
   8.0600000000000005E-002    -6.2220674241934049E-015
   8.1449999999999995E-002    -5.7794898672675014E-015
   8.2299999999999984E-002    -4.8009967251658607E-015
   8.3150000000000002E-002    -3.2425166971932494E-015
   8.3999999999999991E-002    -1.0933351944294297E-015
   8.4849999999999981E-002     1.6161521433825216E-015
   8.5699999999999998E-002     4.8080863683292867E-015
   8.6549999999999988E-002     8.3529298646175041E-015
   8.7400000000000005E-002     1.2068113458594800E-014
   8.8249999999999995E-002     1.5720204989282866E-014
   8.9099999999999985E-002     1.9031140991242447E-014
   8.9950000000000002E-002     2.1688863256108224E-014
   9.0799999999999992E-002     2.3362459403421391E-014
   9.1649999999999981E-002     2.3721651999768142E-014
   9.2499999999999999E-002     2.2460072092173871E-014
   9.3349999999999989E-002     1.9321455080776955E-014
   9.4200000000000006E-002     1.4127530451619622E-014
   9.5049999999999996E-002     6.8060002721661715E-015
   9.5899999999999985E-002    -2.5832526331760517E-015
   9.6750000000000003E-002    -1.3825846536632434E-014
   9.7599999999999992E-002    -2.6536671757834829E-014
   9.8449999999999982E-002    -4.0151966471195533E-014
   9.9299999999999999E-002    -5.3931790292288948E-014
  0.10014999999999999         -6.6974628500465315E-014
  0.10099999999999998         -7.8245431737216861E-014
  0.10185000000000000         -8.6617756216345559E-014
  0.10269999999999999         -9.0929827068158892E-014
  0.10355000000000000         -9.0053550625374200E-014
  0.10439999999999999         -8.2974378371962311E-014
  0.10524999999999998         -6.8878970166122206E-014
  0.10610000000000000         -4.7246564158264759E-014
  0.10694999999999999         -1.7938963424535191E-014
  0.10779999999999998          1.8716709084693092E-014
  0.10865000000000000          6.1858941832852241E-014
  0.10949999999999999          1.1004310801052512E-013
  0.11035000000000000          1.6121993596380969E-013
  0.11119999999999999          2.1274708458009789E-013
  0.11204999999999998          2.6143953312739174E-013
  0.11290000000000000          3.0366210353199143E-013
  0.11374999999999999          3.3546690711411638E-013
  0.11459999999999998          3.5277456537877799E-013
  0.11545000000000000          3.5159709143451045E-013
  0.11629999999999999          3.2829601524503450E-013
  0.11715000000000000          2.7986722596371112E-013
  0.11799999999999999          2.0424011905043154E-013
  0.11884999999999998          1.0057625290919956E-013
  0.11970000000000000         -3.0449891959769595E-014
  0.12054999999999999         -1.8640757614361630E-013
  0.12139999999999998         -3.6292441544315371E-013
  0.12225000000000000         -5.5357983432264685E-013
  0.12309999999999999         -7.4989699949676798E-013
  0.12395000000000000         -9.4145076607246122E-013
  0.12479999999999999         -1.1161056280923235E-012
  0.12564999999999998         -1.2603930200352751E-012
  0.12650000000000000         -1.3600298561519146E-012
  0.12734999999999999         -1.4005756809483404E-012
  0.12819999999999998         -1.3682134208659513E-012
  0.12905000000000000         -1.2506337688536973E-012
  0.12989999999999999         -1.0379914405513242E-012
  0.13074999999999998         -7.2389509969943635E-013
  0.13159999999999999         -3.0638117529499483E-013
  0.13245000000000001          2.1118059480858550E-013
  0.13329999999999997          8.1931198900357475E-013
  0.13414999999999999          1.5018433435711895E-012
  0.13500000000000001          2.2355829918729692E-012
  0.13584999999999997          2.9903037610498822E-012
  0.13669999999999999          3.7290928018916250E-012
  0.13755000000000001          4.4091142727376788E-012
  0.13839999999999997          4.9828042163887761E-012
  0.13924999999999998          5.3995180878614647E-012
  0.14010000000000000          5.6076112718763775E-012
  0.14094999999999996          5.5569265502703074E-012
  0.14179999999999998          5.2016219424382587E-012
  0.14265000000000000          4.5032623449546346E-012
  0.14350000000000002          3.4340499999261268E-012
  0.14434999999999998          1.9800759810454417E-012
  0.14520000000000000          1.4441759456593671E-013
  0.14605000000000001         -2.0500858793865225E-012
  0.14689999999999998         -4.5585607538342991E-012
  0.14774999999999999         -7.3125279815130051E-012
  0.14860000000000001         -1.0219214070428413E-011
  0.14944999999999997         -1.3161917015884241E-011
  0.15029999999999999         -1.6001570719672147E-011
  0.15115000000000001         -1.8579635984105297E-011
  0.15199999999999997         -2.0722357296058540E-011
  0.15284999999999999         -2.2246425019652970E-011
  0.15370000000000000         -2.2965989408925793E-011
  0.15454999999999997         -2.2700888287745234E-011
  0.15539999999999998         -2.1285923074479772E-011
  0.15625000000000000         -1.8580906091749253E-011
  0.15709999999999996         -1.4481118485436850E-011
  0.15794999999999998         -8.9278172477043576E-012
  0.15880000000000000         -1.9182829313629506E-012
  0.15965000000000001          6.4850851220010282E-012
  0.16049999999999998          1.6147158037619665E-011
  0.16134999999999999          2.6854518426272937E-011
  0.16220000000000001          3.8312465078279859E-011
  0.16304999999999997          5.0145119881847418E-011
  0.16389999999999999          6.1898996715739819E-011
  0.16475000000000001          7.3050460222842874E-011
  0.16559999999999997          8.3017257318950661E-011
  0.16644999999999999          9.1174167365714968E-011
  0.16730000000000000          9.6872820070236161E-011
  0.16814999999999997          9.9465264014731117E-011
  0.16899999999999998          9.8330994946309707E-011
  0.16985000000000000          9.2906762246624711E-011
  0.17069999999999996          8.2718326171007277E-011
  0.17154999999999998          6.7413214861432866E-011
  0.17240000000000000          4.6793315072627849E-011
  0.17325000000000002          2.0846022425080936E-011
  0.17409999999999998         -1.0227416880776119E-011
  0.17494999999999999         -4.5987718070344740E-011
  0.17580000000000001         -8.5739057281964207E-011
  0.17664999999999997         -1.2851759327998390E-010
  0.17749999999999999         -1.7308822954084886E-010
  0.17835000000000001         -2.1795072873010884E-010
  0.17919999999999997         -2.6135623979327052E-010
  0.18004999999999999         -3.0133459369834841E-010
  0.18090000000000001         -3.3573302961838689E-010
  0.18174999999999997         -3.6226601103729621E-010
  0.18259999999999998         -3.7857610352326441E-010
  0.18345000000000000         -3.8230484075351875E-010
  0.18429999999999996         -3.7117290624317004E-010
  0.18514999999999998         -3.4306752263756020E-010
  0.18600000000000000         -2.9613619568554871E-010
  0.18684999999999996         -2.2888389805367981E-010
  0.18769999999999998         -1.4027194737266600E-010
  0.18855000000000000         -2.9816499725444508E-011
  0.18940000000000001          1.0231603526489423E-010
  0.19024999999999997          2.5521911186164337E-010
  0.19109999999999999          4.2716285261745230E-010
  0.19195000000000001          6.1551937745404829E-010
  0.19279999999999997          8.1669811612822448E-010
  0.19364999999999999          1.0260914622952118E-009
  0.19450000000000001          1.2380299794884821E-009
  0.19534999999999997          1.4457467374643476E-009
  0.19619999999999999          1.6413477786607755E-009
  0.19705000000000000          1.8157878161336056E-009
  0.19789999999999996          1.9588432468143232E-009
  0.19874999999999998          2.0590810035931876E-009
  0.19960000000000000          2.1038126709206931E-009
  0.20044999999999996          2.0790304733861869E-009
  0.20129999999999998          1.9693119342333402E-009
  0.20215000000000000          1.7576878124001714E-009
  0.20300000000000001          1.4254560350495619E-009
  0.20384999999999998          9.5193003776432417E-010
  0.20469999999999999          3.1412061818168069E-010
  0.20555000000000001         -5.1369472755934176E-010
  0.20639999999999997         -1.5604862546750454E-009
  0.20724999999999999         -2.8591271866709702E-009
  0.20810000000000001         -4.4471926648563833E-009
  0.20894999999999997         -6.3679071562906694E-009
  0.20979999999999999         -8.6712914684638159E-009
  0.21065000000000000         -1.1415514959727736E-008
  0.21149999999999997         -1.4668457489209731E-008
  0.21234999999999998         -1.8509556178653081E-008
  0.21320000000000000         -2.3031899892951743E-008
  0.21404999999999996         -2.8344695208185424E-008
  0.21489999999999998         -3.4575995302157120E-008
  0.21575000000000000         -4.1875920660644722E-008
  0.21659999999999996         -5.0420187743421840E-008
  0.21744999999999998         -6.0414204143745501E-008
  0.21829999999999999         -7.2097700143744362E-008
  0.21915000000000001         -8.5749756327023763E-008
  0.21999999999999997         -1.0169468385162368E-007
  0.22084999999999999         -1.2030853657678950E-007
  0.22170000000000001         -1.4202622724049582E-007
  0.22254999999999997         -1.6734969225639046E-007
  0.22339999999999999         -1.9685674719396097E-007
  0.22425000000000000         -2.3121131175862479E-007
  0.22509999999999997         -2.7117419745637922E-007
  0.22594999999999998         -3.1761535076778457E-007
  0.22680000000000000         -3.7152736107056907E-007
  0.22764999999999996         -4.3403985757849311E-007
  0.22849999999999998         -5.0643596550320835E-007
  0.22935000000000000         -5.9016940603856209E-007
  0.23019999999999996         -6.8688345145505378E-007
  0.23104999999999998         -7.9843214407473073E-007
  0.23190000000000000         -9.2690058149741042E-007
  0.23275000000000001         -1.0746301181289741E-006
  0.23359999999999997         -1.2442411986255569E-006
  0.23444999999999999         -1.4386612027053679E-006
  0.23530000000000001         -1.6611499676111302E-006
  0.23614999999999997         -1.9153301376610991E-006
  0.23699999999999999         -2.2052145885832483E-006
  0.23785000000000001         -2.5352362613764092E-006
  0.23869999999999997         -2.9102786680537358E-006
  0.23954999999999999         -3.3357063169815135E-006
  0.24040000000000000         -3.8173881919008646E-006
  0.24124999999999996         -4.3617321926565513E-006
  0.24209999999999998         -4.9757048216561220E-006
  0.24295000000000000         -5.6668566456618335E-006
  0.24379999999999996         -6.4433441920645583E-006
  0.24464999999999998         -7.3139378044393745E-006
  0.24550000000000000         -8.2880383470929733E-006
  0.24634999999999996         -9.3756771418452583E-006
  0.24719999999999998         -1.0587511979042927E-005
  0.24804999999999999         -1.1934813243348847E-005
  0.24890000000000001         -1.3429454312917950E-005
  0.24974999999999997         -1.5083857994318538E-005
  0.25059999999999999         -1.6910962492435916E-005
  0.25145000000000001         -1.8924172100839236E-005
  0.25229999999999997         -2.1137272429246609E-005
  0.25314999999999999         -2.3564350063034702E-005
  0.25400000000000000         -2.6219683143796629E-005
  0.25484999999999997         -2.9117624200221021E-005
  0.25569999999999998         -3.2272452849717739E-005
  0.25655000000000000         -3.5698247122010609E-005
  0.25739999999999996         -3.9408666439141997E-005
  0.25824999999999998         -4.3416761286229171E-005
  0.25910000000000000         -4.7734787255474441E-005
  0.25994999999999996         -5.2373918610574883E-005
  0.26079999999999998         -5.7344056485973178E-005
  0.26164999999999999         -6.2653519452304926E-005
  0.26249999999999996         -6.8308759959556030E-005
  0.26334999999999997         -7.4314073282966657E-005
  0.26419999999999999         -8.0671275184978538E-005
  0.26505000000000001         -8.7379403503833460E-005
  0.26589999999999997         -9.4434334800315724E-005
  0.26674999999999999         -1.0182853031128714E-004
  0.26760000000000000         -1.0955064692734148E-004
  0.26844999999999997         -1.1758527311226904E-004
  0.26929999999999998         -1.2591253449793891E-004
  0.27015000000000000         -1.3450785413077912E-004
  0.27099999999999996         -1.4334173338420572E-004
  0.27184999999999998         -1.5237935500230494E-004
  0.27270000000000000         -1.6158048993525207E-004
  0.27354999999999996         -1.7089925930901902E-004
  0.27439999999999998         -1.8028410878438830E-004
  0.27524999999999999         -1.8967759181976425E-004
  0.27609999999999996         -1.9901646860408299E-004
  0.27694999999999997         -2.0823163453254759E-004
  0.27779999999999999         -2.1724833064016433E-004
  0.27865000000000001         -2.2598631303426777E-004
  0.27949999999999997         -2.3436018155852573E-004
  0.28034999999999999         -2.4227939727732920E-004
  0.28120000000000001         -2.4964928903713050E-004
  0.28204999999999997         -2.5637103004459819E-004
  0.28289999999999998         -2.6234256786482080E-004
  0.28375000000000000         -2.6745917950328892E-004
  0.28459999999999996         -2.7161432679102761E-004
  0.28544999999999998         -2.7470050293760943E-004
  0.28630000000000000         -2.7661025614012072E-004
  0.28714999999999996         -2.7723692781358284E-004
  0.28799999999999998         -2.7647609841878018E-004
  0.28885000000000000         -2.7422654358981989E-004
  0.28969999999999996         -2.7039150453426851E-004
  0.29054999999999997         -2.6487990509390237E-004
  0.29139999999999999         -2.5760758584850022E-004
  0.29224999999999995         -2.4849854490648711E-004
  0.29309999999999997         -2.3748629604694561E-004
  0.29394999999999999         -2.2451525142750628E-004
  0.29480000000000001         -2.0954161211529133E-004
  0.29564999999999997         -1.9253477739370297E-004
  0.29649999999999999         -1.7347844103331265E-004
  0.29735000000000000         -1.5237160974191123E-004
  0.29819999999999997         -1.2922942808535389E-004
  0.29904999999999998         -1.0408397033289278E-004
  0.29990000000000000         -7.6985161478517619E-005
  0.30074999999999996         -4.8001012431018105E-005
  0.30159999999999998         -1.7217837141859944E-005
  0.30245000000000000          1.5258978286263733E-005
  0.30329999999999996          4.9305606628296915E-005
  0.30414999999999998          8.4779718073774645E-005
  0.30499999999999999          1.2152099009781855E-004
  0.30584999999999996          1.5935167627823246E-004
  0.30669999999999997          1.9807749616100498E-004
  0.30754999999999999          2.3748865600299211E-004
  0.30840000000000001          2.7736123447655894E-004
  0.30924999999999997          3.1745826995450613E-004
  0.31009999999999999          3.5753192737760550E-004
  0.31095000000000000          3.9732503659300572E-004
  0.31179999999999997          4.3657310052488447E-004
  0.31264999999999998          4.7500653243427650E-004
  0.31350000000000000          5.1235293408567642E-004
  0.31434999999999996          5.4833939233387915E-004
  0.31519999999999998          5.8269496114732441E-004
  0.31605000000000000          6.1515333599516215E-004
  0.31689999999999996          6.4545522189380841E-004
  0.31774999999999998          6.7335074678020828E-004
  0.31859999999999999          6.9860249777298016E-004
  0.31944999999999996          7.2098713032757379E-004
  0.32029999999999997          7.4029863910700128E-004
  0.32114999999999999          7.5634996190477850E-004
  0.32199999999999995          7.6897535944852918E-004
  0.32284999999999997          7.7803206578354030E-004
  0.32369999999999999          7.8340231375909422E-004
  0.32455000000000001          7.8499452123654547E-004
  0.32539999999999997          7.8274461769454139E-004
  0.32624999999999998          7.7661728173427443E-004
  0.32710000000000000          7.6660594189015242E-004
  0.32794999999999996          7.5273419832471821E-004
  0.32879999999999998          7.3505492317067441E-004
  0.32965000000000000          7.1365060485391210E-004
  0.33049999999999996          6.8863262385907486E-004
  0.33134999999999998          6.6014059360107870E-004
  0.33220000000000000          6.2834126108362914E-004
  0.33304999999999996          5.9342692235087654E-004
  0.33389999999999997          5.5561383874685934E-004
  0.33474999999999999          5.1514058926201308E-004
  0.33559999999999995          4.7226538585940848E-004
  0.33644999999999997          4.2726453183111350E-004
  0.33729999999999999          3.8042902795160983E-004
  0.33815000000000001          3.3206258910701685E-004
  0.33899999999999997          2.8247874044334180E-004
  0.33984999999999999          2.3199758127825004E-004
  0.34070000000000000          1.8094328160970163E-004
  0.34154999999999996          1.2964095234537025E-004
  0.34239999999999998          7.8414030842823695E-005
  0.34325000000000000          2.7581002195515497E-005