 -0.12000000000000000          0.0000000000000000
 -0.11914999999999999          0.0000000000000000
 -0.11830000000000000          0.0000000000000000
 -0.11745000000000000          1.2020845690249839E-018
 -0.11660000000000000          6.7678435460784177E-018
 -0.11574999999999999          1.9945017311359534E-017
 -0.11490000000000000          3.9012839949829985E-017
 -0.11405000000000000          5.1723943449032990E-017
 -0.11320000000000000          3.4800568624829661E-017
 -0.11234999999999999         -3.5837123511883557E-017
 -0.11150000000000000         -1.6260141464138818E-016
 -0.11065000000000000         -2.9794430642794876E-016
 -0.10979999999999999         -3.2535337380183263E-016
 -0.10894999999999999         -6.9524974637517537E-017
 -0.10810000000000000          6.4810987444211492E-016
 -0.10725000000000000          1.9067095122885185E-015
 -0.10639999999999999          3.5574159933592995E-015
 -0.10554999999999999          5.1149553313698118E-015
 -0.10470000000000000          5.7323032884846486E-015
 -0.10385000000000000          4.3194113493018686E-015
 -0.10299999999999999         -1.6017462936028681E-016
 -0.10214999999999999         -8.2330031031548178E-015
 -0.10130000000000000         -1.9385215115142437E-014
 -0.10045000000000000         -3.1608479177166736E-014
  -9.9599999999999994E-002    -4.1213769721814360E-014
  -9.8750000000000004E-002    -4.3100565264049630E-014
  -9.7900000000000001E-002    -3.1607951838429384E-014
  -9.7049999999999997E-002    -1.9561280139902573E-015
  -9.6199999999999994E-002     4.7872495410213503E-014
  -9.5349999999999990E-002     1.1513467348847080E-013
  -9.4500000000000001E-002     1.9067833684890581E-013
  -9.3649999999999997E-002     2.5819407389923249E-013
  -9.2799999999999994E-002     2.9489886745079495E-013
  -9.1950000000000004E-002     2.7405119692560025E-013
  -9.1100000000000000E-002     1.6944428602814841E-013
  -9.0249999999999997E-002    -3.8331298715267774E-014
  -8.9399999999999993E-002    -3.5448680164528698E-013
  -8.8549999999999990E-002    -7.6256527630060454E-013
  -8.7700000000000000E-002    -1.2183558134675595E-012
  -8.6849999999999997E-002    -1.6468994374685084E-012
  -8.5999999999999993E-002    -1.9443302541832234E-012
  -8.5150000000000003E-002    -1.9860348752337146E-012
  -8.4300000000000000E-002    -1.6419871112755450E-012
  -8.3449999999999996E-002    -7.9911257344799762E-013
  -8.2600000000000007E-002     6.1081326427764159E-013
  -8.1749999999999989E-002     2.5807784593150773E-012
  -8.0900000000000000E-002     5.0002654889551148E-012
  -8.0049999999999996E-002     7.6349214784130041E-012
  -7.9199999999999993E-002     1.0120553795638157E-011
  -7.8350000000000003E-002     1.1977377294073602E-011
  -7.7499999999999999E-002     1.2648732441422450E-011
  -7.6649999999999996E-002     1.1565465418441951E-011
  -7.5800000000000006E-002     8.2330271126087541E-012
  -7.4949999999999989E-002     2.3335697777984954E-012
  -7.4099999999999999E-002    -6.1693406889732976E-012
  -7.3249999999999996E-002    -1.6939476767837929E-011
  -7.2399999999999992E-002    -2.9207962124647925E-011
  -7.1550000000000002E-002    -4.1761458210976313E-011
  -7.0699999999999999E-002    -5.2991462743835109E-011
  -6.9849999999999995E-002    -6.1010841034903925E-011
  -6.9000000000000006E-002    -6.3834558692156194E-011
  -6.8149999999999988E-002    -5.9611565844515727E-011
  -6.7299999999999999E-002    -4.6885257176228911E-011
  -6.6449999999999995E-002    -2.4852502222443103E-011
  -6.5599999999999992E-002     6.4121322622584614E-012
  -6.4750000000000002E-002     4.5799697434103654E-011
  -6.3899999999999998E-002     9.1104301241967114E-011
  -6.3049999999999995E-002     1.3907153522744800E-010
  -6.2199999999999998E-002     1.8556174941635999E-010
  -6.1350000000000002E-002     2.2581824660570948E-010
  -6.0499999999999998E-002     2.5481788422391820E-010
  -5.9650000000000002E-002     2.6767206013241687E-010
  -5.8799999999999998E-002     2.6004094946041045E-010
  -5.7950000000000002E-002     2.2852367901095814E-010
  -5.7099999999999998E-002     1.7099233342956026E-010
  -5.6249999999999994E-002     8.6845449051246003E-011
  -5.5400000000000005E-002    -2.2832853221823567E-011
  -5.4550000000000001E-002    -1.5521102009332321E-010
  -5.3699999999999998E-002    -3.0574089580831327E-010
  -5.2849999999999994E-002    -4.6826980364176616E-010
  -5.2000000000000005E-002    -6.3522159709938613E-010
  -5.1150000000000001E-002    -7.9783446771971036E-010
  -5.0299999999999997E-002    -9.4644921874309411E-010
  -4.9449999999999994E-002    -1.0708444969322288E-009
  -4.8600000000000004E-002    -1.1606232230084749E-009
  -4.7750000000000001E-002    -1.2056555480347553E-009
  -4.6899999999999997E-002    -1.1965856753900543E-009
  -4.6049999999999994E-002    -1.1254066459664997E-009
  -4.5200000000000004E-002    -9.8610027474108980E-010
  -4.4350000000000001E-002    -7.7533074388994880E-010
  -4.3499999999999997E-002    -4.9316880333832414E-010
  -4.2649999999999993E-002    -1.4381424232338378E-010
  -4.1800000000000004E-002     2.6373021938149599E-010
  -4.0950000000000000E-002     7.1508282396749325E-010
  -4.0099999999999997E-002     1.1900577420956133E-009
  -3.9249999999999993E-002     1.6624374961418747E-009
  -3.8400000000000004E-002     2.0999824258486079E-009
  -3.7550000000000000E-002     2.4646887169614593E-009
  -3.6699999999999997E-002     2.7132888944849010E-009
  -3.5850000000000007E-002     2.7979541094101968E-009
  -3.5000000000000003E-002     2.6671243208348614E-009
  -3.4150000000000000E-002     2.2663716081193150E-009
  -3.3299999999999996E-002     1.5391733672072541E-009
  -3.2450000000000007E-002     4.2745533268724684E-010
  -3.1600000000000003E-002    -1.1282010676075996E-009
  -3.0750000000000000E-002    -3.1888271834200158E-009
  -2.9899999999999996E-002    -5.8178822666675430E-009
  -2.9050000000000006E-002    -9.0826551130951528E-009
  -2.8200000000000003E-002    -1.3056274937379186E-008
  -2.7349999999999999E-002    -1.7820306325141000E-008
  -2.6499999999999996E-002    -2.3467885283931557E-008
  -2.5650000000000006E-002    -3.0107293452332624E-008
  -2.4800000000000003E-002    -3.7866015443697951E-008
  -2.3949999999999999E-002    -4.6895145965002740E-008
  -2.3099999999999996E-002    -5.7374285034319594E-008
  -2.2250000000000006E-002    -6.9516875388392899E-008
  -2.1400000000000002E-002    -8.3576172668587612E-008
  -2.0549999999999999E-002    -9.9851857530176712E-008
  -1.9699999999999995E-002    -1.1869768399799879E-007
  -1.8850000000000006E-002    -1.4052999011096171E-007
  -1.8000000000000002E-002    -1.6583750840473277E-007
  -1.7149999999999999E-002    -1.9519231666406345E-007
  -1.6299999999999995E-002    -2.2926214969660012E-007
  -1.5450000000000005E-002    -2.6882404315768704E-007
  -1.4600000000000002E-002    -3.1477920391605166E-007
  -1.3749999999999998E-002    -3.6816916662995655E-007
  -1.2899999999999995E-002    -4.3019302191328444E-007
  -1.2050000000000005E-002    -5.0222629520862699E-007
  -1.1200000000000002E-002    -5.8584099168520593E-007
  -1.0349999999999998E-002    -6.8282686590829989E-007
  -9.5000000000000084E-003    -7.9521392123053973E-007
  -8.6500000000000049E-003    -9.2529846866505735E-007
  -7.8000000000000014E-003    -1.0756686250694401E-006
  -6.9499999999999978E-003    -1.2492346425850606E-006
  -6.1000000000000082E-003    -1.4492606567166666E-006
  -5.2500000000000047E-003    -1.6794001910945315E-006
  -4.4000000000000011E-003    -1.9437325817482630E-006
  -3.5499999999999976E-003    -2.2468047326220276E-006
  -2.7000000000000079E-003    -2.5936763713723682E-006
  -1.8500000000000044E-003    -2.9899628084390679E-006
  -1.0000000000000009E-003    -3.4418887381996372E-006
  -1.4999999999999736E-004    -3.9563354850508393E-006
   6.9999999999999230E-004    -4.5408946689716981E-006
   1.5499999999999958E-003    -5.2039210949414897E-006
   2.3999999999999994E-003    -5.9545835200551648E-006
   3.2500000000000029E-003    -6.8029164858850055E-006
   4.0999999999999925E-003    -7.7598724934003409E-006
   4.9499999999999961E-003    -8.8373615656229822E-006
   5.7999999999999996E-003    -1.0048299433310420E-005
   6.6499999999999893E-003    -1.1406639247960828E-005
   7.5000000000000067E-003    -1.2927395815553619E-005
   8.3499999999999963E-003    -1.4626687757924996E-005
   9.1999999999999860E-003    -1.6521726459288500E-005
   1.0050000000000003E-002    -1.8630835335127088E-005
   1.0899999999999993E-002    -2.0973432312935325E-005
   1.1750000000000010E-002    -2.3569997113900729E-005
   1.2600000000000000E-002    -2.6442057974488571E-005
   1.3449999999999990E-002    -2.9612100503599133E-005
   1.4300000000000007E-002    -3.3103505927423129E-005
   1.5149999999999997E-002    -3.6940455891252079E-005
   1.5999999999999986E-002    -4.1147788370859125E-005
   1.6850000000000004E-002    -4.5750846884082543E-005
   1.7699999999999994E-002    -5.0775320427104461E-005
   1.8549999999999983E-002    -5.6247020752073459E-005
   1.9400000000000001E-002    -6.2191612754574540E-005
   2.0249999999999990E-002    -6.8634358833413633E-005
   2.1100000000000008E-002    -7.5599836287378221E-005
   2.1949999999999997E-002    -8.3111542415640965E-005
   2.2799999999999987E-002    -9.1191537993084735E-005
   2.3650000000000004E-002    -9.9860042344444584E-005
   2.4499999999999994E-002    -1.0913496905051354E-004
   2.5349999999999984E-002    -1.1903146918105477E-004
   2.6200000000000001E-002    -1.2956139018608081E-004
   2.7049999999999991E-002    -1.4073272267034262E-004
   2.7900000000000008E-002    -1.5254913315778030E-004
   2.8749999999999998E-002    -1.6500929362581019E-004
   2.9599999999999987E-002    -1.7810630086904759E-004
   3.0450000000000005E-002    -1.9182713235663449E-004
   3.1299999999999994E-002    -2.0615195331383180E-004
   3.2149999999999984E-002    -2.2105357173508199E-004
   3.3000000000000002E-002    -2.3649680725736647E-004
   3.3849999999999991E-002    -2.5243808611405931E-004
   3.4700000000000009E-002    -2.6882476693880763E-004
   3.5549999999999998E-002    -2.8559463509860458E-004
   3.6399999999999988E-002    -3.0267551322211316E-004
   3.7250000000000005E-002    -3.1998502820306240E-004
   3.8099999999999995E-002    -3.3743027073702861E-004
   3.8949999999999985E-002    -3.5490760604760734E-004
   3.9800000000000002E-002    -3.7230238893434017E-004
   4.0649999999999992E-002    -3.8948946890505196E-004
   4.1500000000000009E-002    -4.0633293199890386E-004
   4.2349999999999999E-002    -4.2268665263971660E-004
   4.3199999999999988E-002    -4.3839444938572421E-004
   4.4050000000000006E-002    -4.5329104619101990E-004
   4.4899999999999995E-002    -4.6720237324315833E-004
   4.5749999999999985E-002    -4.7994688680294447E-004
   4.6600000000000003E-002    -4.9133646728561449E-004
   4.7449999999999992E-002    -5.0117759032527131E-004
   4.8299999999999982E-002    -5.0927269807387449E-004
   4.9149999999999999E-002    -5.1542221328115584E-004
   4.9999999999999989E-002    -5.1942579548506043E-004
   5.0850000000000006E-002    -5.2108395284663459E-004
   5.1699999999999996E-002    -5.2020105066172566E-004
   5.2549999999999986E-002    -5.1658688550155606E-004
   5.3400000000000003E-002    -5.1005845227903657E-004
   5.4249999999999993E-002    -5.0044316751455663E-004
   5.5099999999999982E-002    -4.8758065242295793E-004
   5.5950000000000000E-002    -4.7132529033791363E-004
   5.6799999999999989E-002    -4.5154904040315628E-004
   5.7650000000000007E-002    -4.2814298592018074E-004
   5.8499999999999996E-002    -4.0102093233047897E-004
   5.9349999999999986E-002    -3.7012035364939979E-004
   6.0200000000000004E-002    -3.3540566202109657E-004
   6.1049999999999993E-002    -2.9686919436705832E-004
   6.1899999999999983E-002    -2.5453398043244696E-004
   6.2750000000000000E-002    -2.0845456549390759E-004
   6.3599999999999990E-002    -1.5871884093597482E-004
   6.4450000000000007E-002    -1.0544903337377290E-004
   6.5299999999999997E-002    -4.8802175316963066E-005
   6.6149999999999987E-002     1.1029741581784688E-005
   6.7000000000000004E-002     7.3818974846823671E-005
   6.7849999999999994E-002     1.3930293975003989E-004
   6.8699999999999983E-002     2.0718501242488721E-004
   6.9550000000000001E-002     2.7713517163064879E-004
   7.0399999999999990E-002     3.4879210555032212E-004
   7.1249999999999980E-002     4.2176511095687276E-004
   7.2099999999999997E-002     4.9563643739245888E-004
   7.2949999999999987E-002     5.6996396795929187E-004
   7.3800000000000004E-002     6.4428441090352124E-004
   7.4649999999999994E-002     7.1811675120027319E-004
   7.5499999999999984E-002     7.9096637799134953E-004
   7.6350000000000001E-002     8.6232884156518808E-004
   7.7199999999999991E-002     9.3169460578518422E-004
   7.8049999999999981E-002     9.9855308023779634E-004
   7.8899999999999998E-002     1.0623978692543604E-003
   7.9749999999999988E-002     1.1227313916276876E-003
   8.0600000000000005E-002     1.1790695509691208E-003
   8.1449999999999995E-002     1.2309472619024828E-003
   8.2299999999999984E-002     1.2779223285393252E-003
   8.3150000000000002E-002     1.3195805941856782E-003
   8.3999999999999991E-002     1.3555405909702481E-003
   8.4849999999999981E-002     1.3854573664729979E-003
   8.5699999999999998E-002     1.4090265182159973E-003
   8.6549999999999988E-002     1.4259881801033120E-003
   8.7400000000000005E-002     1.4361289641430992E-003
   8.8249999999999995E-002     1.4392862218890051E-003
   8.9099999999999985E-002     1.4353490427899459E-003
   8.9950000000000002E-002     1.4242604385419407E-003
   9.0799999999999992E-002     1.4060188793344499E-003
   9.1649999999999981E-002     1.3806778509814406E-003
   9.2499999999999999E-002     1.3483465366705438E-003
   9.3349999999999989E-002     1.3091894608227863E-003
   9.4200000000000006E-002     1.2634244656054673E-003
   9.5049999999999996E-002     1.2113214717427170E-003
   9.5899999999999985E-002     1.1532001055916329E-003
   9.6750000000000003E-002     1.0894273412056803E-003
   9.7599999999999992E-002     1.0204132838324137E-003
   9.8449999999999982E-002     9.4660781593693935E-004
   9.9299999999999999E-002     8.6849610381463458E-004
  0.10014999999999999          7.8659457819008484E-004
  0.10099999999999998          7.0144563790105346E-004
  0.10185000000000000          6.1361272578814349E-004
  0.10269999999999999          5.2367536028675207E-004
  0.10355000000000000          4.3222308173516901E-004
  0.10439999999999999          3.3985034498314887E-004
  0.10524999999999998          2.4715111615011956E-004
  0.10610000000000000          1.5471349108736056E-004
  0.10694999999999999          6.3114375780009017E-005
  0.10779999999999998         -2.7085518324999013E-005
  0.10865000000000000         -1.1534602983204921E-004
  0.10949999999999999         -2.0115255475231479E-004
  0.11035000000000000         -2.8402032135673783E-004
  0.11119999999999999         -3.6349711490904230E-004
  0.11204999999999998         -4.3916798700103436E-004
  0.11290000000000000         -5.1065675331804679E-004
  0.11374999999999999         -5.7762951553019912E-004
  0.11459999999999998         -6.3979566435693011E-004
  0.11545000000000000         -6.9691001089080184E-004
  0.11629999999999999         -7.4877306451048126E-004
  0.11715000000000000         -7.9523119143211558E-004
  0.11799999999999999         -8.3617743829772690E-004
  0.11884999999999998         -8.7155052855165179E-004
  0.11970000000000000         -9.0133324091810929E-004
  0.12054999999999999         -9.2555163975873475E-004
  0.12139999999999998         -9.4427288903897093E-004
  0.12225000000000000         -9.5760343641554250E-004
  0.12309999999999999         -9.6568606780917342E-004
  0.12395000000000000         -9.6869747521245177E-004
  0.12479999999999999         -9.6684478512813104E-004
  0.12564999999999998         -9.6036315470638149E-004
  0.12650000000000000         -9.4951166887904807E-004
  0.12734999999999999         -9.3457037456749629E-004
  0.12819999999999998         -9.1583664093651518E-004
  0.12905000000000000         -8.9362160802748528E-004
  0.12989999999999999         -8.6824685802006085E-004
  0.13074999999999998         -8.4004105289214111E-004
  0.13159999999999999         -8.0933639202763271E-004
  0.13245000000000001         -7.7646570862736116E-004
  0.13329999999999997         -7.4175926015170057E-004
  0.13414999999999999         -7.0554219733254243E-004
  0.13500000000000001         -6.6813168007394332E-004
  0.13584999999999997         -6.2983465641692246E-004
  0.13669999999999999         -5.9094579366701422E-004
  0.13755000000000001         -5.5174548725253495E-004
  0.13839999999999997         -5.1249847430318821E-004
  0.13924999999999998         -4.7345230188442216E-004
  0.14010000000000000         -4.3483626786017335E-004
  0.14094999999999996         -3.9686081869410244E-004
  0.14179999999999998         -3.5971664415914513E-004
  0.14265000000000000         -3.2357462971039020E-004
  0.14350000000000002         -2.8858556242996003E-004
  0.14434999999999998         -2.5488040641298196E-004
  0.14520000000000000         -2.2257049153624151E-004
  0.14605000000000001         -1.9174796490127388E-004
  0.14689999999999998         -1.6248643325479385E-004
  0.14774999999999999         -1.3484188320708247E-004
  0.14860000000000001         -1.0885333081762455E-004
  0.14944999999999997         -8.4544117916550096E-005
  0.15029999999999999         -6.1922610543457514E-005
  0.15115000000000001         -4.0983840312583674E-005
  0.15199999999999997         -2.1710339691237209E-005
  0.15284999999999999         -4.0734740815246339E-006
  0.15370000000000000          1.1965159405520357E-005
  0.15454999999999997          2.6452689286850847E-005
  0.15539999999999998          3.9443711195435559E-005
  0.15625000000000000          5.0999026461516508E-005
  0.15709999999999996          6.1184576723329292E-005
  0.15794999999999998          7.0070324966272924E-005
  0.15880000000000000          7.7729250997748546E-005
  0.15965000000000001          8.4236426333191377E-005
  0.16049999999999998          8.9668162789368258E-005
  0.16134999999999999          9.4101068607578087E-005
  0.16220000000000001          9.7611455046041508E-005
  0.16304999999999997          1.0027468007201770E-004
  0.16389999999999999          1.0216447917257558E-004
  0.16475000000000001          1.0335249841841250E-004
  0.16559999999999997          1.0390795571672074E-004
  0.16644999999999999          1.0389714064281171E-004
  0.16730000000000000          1.0338333969560441E-004
  0.16814999999999997          1.0242639759941255E-004
  0.16899999999999998          1.0108271630169593E-004
  0.16985000000000000          9.9405121157362329E-005
  0.17069999999999996          9.7442848355344449E-005
  0.17154999999999998          9.5241525853655194E-005
  0.17240000000000000          9.2843182176572945E-005
  0.17325000000000002          9.0286315025058688E-005
  0.17409999999999998          8.7606075686275892E-005
  0.17494999999999999          8.4834322011844809E-005
  0.17580000000000001          8.1999723710025121E-005
  0.17664999999999997          7.9127889067133001E-005
  0.17749999999999999          7.6241665926279754E-005
  0.17835000000000001          7.3361107184387997E-005
  0.17919999999999997          7.0503783601222699E-005
  0.18004999999999999          6.7684828108456548E-005
  0.18090000000000001          6.4917176473324156E-005
  0.18174999999999997          6.2211721538919370E-005
  0.18259999999999998          5.9577404035145343E-005
  0.18345000000000000          5.7021478595288144E-005
  0.18429999999999996          5.4549504643496854E-005
  0.18514999999999998          5.2165618206718753E-005
  0.18600000000000000          4.9872660736113920E-005
  0.18684999999999996          4.7672322496899676E-005
  0.18769999999999998          4.5565201371454147E-005
  0.18855000000000000          4.3551006216614162E-005
  0.18940000000000001          4.1628665606618157E-005
  0.19024999999999997          3.9796379095633448E-005
  0.19109999999999999          3.8051784068140592E-005
  0.19195000000000001          3.6391972612823624E-005
  0.19279999999999997          3.4813645810599510E-005
  0.19364999999999999          3.3313182222852656E-005
  0.19450000000000001          3.1886662480306594E-005
  0.19534999999999997          3.0530039998692483E-005
  0.19619999999999999          2.9239168208101957E-005
  0.19705000000000000          2.8009865195997348E-005
  0.19789999999999996          2.6838010092190334E-005
  0.19874999999999998          2.5719611826200298E-005
  0.19960000000000000          2.4650857000813250E-005
  0.20044999999999996          2.3628131384304154E-005
  0.20129999999999998          2.2648125439224482E-005
  0.20215000000000000          2.1707773518183856E-005
  0.20300000000000001          2.0804330700638324E-005
  0.20384999999999998          1.9935330895856801E-005
  0.20469999999999999          1.9098666746423300E-005
  0.20555000000000001          1.8292492402556501E-005
  0.20639999999999997          1.7515306803448634E-005
  0.20724999999999999          1.6765865502652948E-005
  0.20810000000000001          1.6043191900203256E-005
  0.20894999999999997          1.5346563110645080E-005
  0.20979999999999999          1.4675476522401131E-005
  0.21065000000000000          1.4029582157059622E-005
  0.21149999999999997          1.3408682404127341E-005
  0.21234999999999998          1.2812658520790596E-005
  0.21320000000000000          1.2241468590914935E-005
  0.21404999999999996          1.1695062606194970E-005
  0.21489999999999998          1.1173413824780735E-005
  0.21575000000000000          1.0676441977724380E-005
  0.21659999999999996          1.0204031177052233E-005
  0.21744999999999998          9.7559787890882594E-006
  0.21829999999999999          9.3320101841771335E-006
  0.21915000000000001          8.9317771471036887E-006
  0.21999999999999997          8.5548119818475242E-006
  0.22084999999999999          8.2005526469793838E-006
  0.22170000000000001          7.8683258283613906E-006
  0.22254999999999997          7.5573321401859209E-006
  0.22339999999999999          7.2666659410582948E-006
  0.22425000000000000          6.9953262054851989E-006
  0.22509999999999997          6.7422310414173787E-006
  0.22594999999999998          6.5062255102937147E-006
  0.22680000000000000          6.2861383167368250E-006
  0.22764999999999996          6.0807938336832594E-006
  0.22849999999999998          5.8890606362190868E-006
  0.22935000000000000          5.7098571036608095E-006
  0.23019999999999996          5.5421881783452550E-006
  0.23104999999999998          5.3851727371083628E-006
  0.23190000000000000          5.2380294147477969E-006
  0.23275000000000001          5.1001008509319014E-006
  0.23359999999999997          4.9708471135442568E-006
  0.23444999999999999          4.8498244213067734E-006
  0.23530000000000001          4.7367000621364794E-006
  0.23614999999999997          4.6312263721306677E-006
  0.23699999999999999          4.5332366116835573E-006
  0.23785000000000001          4.4426143729408186E-006
  0.23869999999999997          4.3592972056521153E-006
  0.23954999999999999          4.2832291500605112E-006
  0.24040000000000000          4.2143757002575075E-006
  0.24124999999999996          4.1526727820675659E-006
  0.24209999999999998          4.0980251790891735E-006
  0.24295000000000000          4.0502817331548907E-006
  0.24379999999999996          4.0092305647451273E-006
  0.24464999999999998          3.9745763087898092E-006
  0.24550000000000000          3.9459479376242162E-006
  0.24634999999999996          3.9228757093282846E-006
  0.24719999999999998          3.9048019175962489E-006
  0.24804999999999999          3.8910673992471709E-006
  0.24890000000000001          3.8809167378426593E-006
  0.24974999999999997          3.8735039058945637E-006
  0.25059999999999999          3.8678851004752681E-006
  0.25145000000000001          3.8630271576605183E-006
  0.25229999999999997          3.8578381200325658E-006
  0.25314999999999999          3.8511720207634996E-006
  0.25400000000000000          3.8418721486915708E-006
  0.25484999999999997          3.8288009801385825E-006
  0.25569999999999998          3.8108880931525525E-006
  0.25655000000000000          3.7871500481965315E-006
  0.25739999999999996          3.7567388244705101E-006
  0.25824999999999998          3.7189513534534992E-006
  0.25910000000000000          3.6732618935931812E-006
  0.25994999999999996          3.6193107784433711E-006
  0.26079999999999998          3.5569189872678654E-006
  0.26164999999999999          3.4860685925270950E-006
  0.26249999999999996          3.4068930944036452E-006
  0.26334999999999997          3.3196772375659943E-006
  0.26419999999999999          3.2248263983858644E-006
  0.26505000000000001          3.1228855511746671E-006
  0.26589999999999997          3.0145182177946101E-006
  0.26674999999999999          2.9005066266219188E-006
  0.26760000000000000          2.7817337970898351E-006
  0.26844999999999997          2.6591810185036867E-006
  0.26929999999999998          2.5338966840585002E-006
  0.27015000000000000          2.4069804527081244E-006
  0.27099999999999996          2.2795397193938421E-006
  0.27184999999999998          2.1526690445286185E-006
  0.27270000000000000          2.0274092948802518E-006
  0.27354999999999996          1.9047232777647509E-006
  0.27439999999999998          1.7854837452752632E-006
  0.27524999999999999          1.6704401615192412E-006
  0.27609999999999996          1.5602278820719152E-006
  0.27694999999999997          1.4553594706185488E-006
  0.27779999999999999          1.3562271459484142E-006
  0.27865000000000001          1.2631060628792276E-006
  0.27949999999999997          1.1761603432841011E-006
  0.28034999999999999          1.0954485466692336E-006
  0.28120000000000001          1.0209243995489084E-006
  0.28204999999999997          9.5245830254393589E-007
  0.28289999999999998          8.8983514288270758E-007
  0.28375000000000000          8.3278120790381190E-007
  0.28459999999999996          7.8098371917397224E-007
  0.28544999999999998          7.3411255620038503E-007
  0.28630000000000000          6.9184116515985716E-007
  0.28714999999999996          6.5387185910842401E-007
  0.28799999999999998          6.1995083058189441E-007
  0.28885000000000000          5.8988859173626303E-007
  0.28969999999999996          5.6356133478334964E-007
  0.29054999999999997          5.4090818050009927E-007
  0.29139999999999999          5.2193772123203067E-007
  0.29224999999999995          5.0670937709162417E-007
  0.29309999999999997          4.9533550205985641E-007
  0.29394999999999999          4.8796776626207982E-007
  0.29480000000000001          4.8478707121742436E-007
  0.29564999999999997          4.8600116412042222E-007
  0.29649999999999999          4.9182491767330973E-007
  0.29735000000000000          5.0247881410251319E-007
  0.29819999999999997          5.1816484576329879E-007
  0.29904999999999998          5.3905119035266315E-007
  0.29990000000000000          5.6525855332349428E-007
  0.30074999999999996          5.9683629567727844E-007
  0.30159999999999998          6.3374407254885327E-007
  0.30245000000000000          6.7584547860137535E-007
  0.30329999999999996          7.2289855790471393E-007
  0.30414999999999998          7.7454630074550237E-007
  0.30499999999999999          8.3032197966980371E-007
  0.30584999999999996          8.8965375663252471E-007
  0.30669999999999997          9.5186807096713274E-007
  0.30754999999999999          1.0161944699684783E-006
  0.30840000000000001          1.0817784556695845E-006
  0.30924999999999997          1.1476862732120256E-006
  0.31009999999999999          1.2129195329357537E-006
  0.31095000000000000          1.2764272198864760E-006
  0.31179999999999997          1.3371355169997360E-006
  0.31264999999999998          1.3939676011452926E-006
  0.31350000000000000          1.4458826459908317E-006
  0.31434999999999996          1.4919048152953681E-006
  0.31519999999999998          1.5311662919184123E-006
  0.31605000000000000          1.5629217819213084E-006
  0.31689999999999996          1.5865792794534903E-006
  0.31774999999999998          1.6017066371344973E-006
  0.31859999999999999          1.6080323078682849E-006
  0.31944999999999996          1.6054339315488397E-006
  0.32029999999999997          1.5939257388941537E-006
  0.32114999999999999          1.5736413732673131E-006
  0.32199999999999995          1.5448172268504469E-006
  0.32284999999999997          1.5077856795175725E-006
  0.32369999999999999          1.4629711598471381E-006
  0.32455000000000001          1.4108828858704371E-006
  0.32539999999999997          1.3521223521186273E-006
  0.32624999999999998          1.2873854476110085E-006
  0.32710000000000000          1.2174491709623680E-006
  0.32794999999999996          1.1431700887147622E-006
  0.32879999999999998          1.0654569957080736E-006
  0.32965000000000000          9.8524413567347824E-007
  0.33049999999999996          9.0346255280303267E-007
  0.33134999999999998          8.2100686475302073E-007
  0.33220000000000000          7.3870147519531465E-007
  0.33304999999999996          6.5728201342964509E-007
  0.33389999999999997          5.7738294408749325E-007
  0.33474999999999999          4.9953005474330001E-007
  0.33559999999999995          4.2414744921088776E-007
  0.33644999999999997          3.5156503056251679E-007
  0.33729999999999999          2.8203481592977217E-007
  0.33815000000000001          2.1574203781225947E-007
  0.33899999999999997          1.5281988774084167E-007
  0.33984999999999999          9.3362174363842137E-008
  0.34070000000000000          3.7428940417957824E-008
  0.34154999999999996         -1.4945609579236670E-008
  0.34239999999999998         -6.3738263978202497E-008