 -0.12000000000000000          0.0000000000000000
 -0.11914999999999999          0.0000000000000000
 -0.11830000000000000          0.0000000000000000
 -0.11745000000000000          0.0000000000000000
 -0.11660000000000000          0.0000000000000000
 -0.11574999999999999          0.0000000000000000
 -0.11490000000000000          0.0000000000000000
 -0.11405000000000000          0.0000000000000000
 -0.11320000000000000          0.0000000000000000
 -0.11234999999999999          0.0000000000000000
 -0.11150000000000000          0.0000000000000000
 -0.11065000000000000          0.0000000000000000
 -0.10979999999999999         -4.4384019782167439E-045
 -0.10894999999999999         -8.4408490673959239E-044
 -0.10810000000000000         -8.1236385547326907E-043
 -0.10725000000000000         -5.1482975125792350E-042
 -0.10639999999999999         -2.4020502872642175E-041
 -0.10554999999999999         -8.6252406643979716E-041
 -0.10470000000000000         -2.3919256082835379E-040
 -0.10385000000000000         -4.8157150388126014E-040
 -0.10299999999999999         -4.8799666227396598E-040
 -0.10214999999999999          1.0723769375502930E-039
 -0.10130000000000000          7.6261488123212474E-039
 -0.10045000000000000          2.5320971461534666E-038
  -9.9599999999999994E-002     6.0345489117862914E-038
  -9.8750000000000004E-002     1.0745909065256689E-037
  -9.7900000000000001E-002     1.2355041442859188E-037
  -9.7049999999999997E-002    -1.2646101305057320E-038
  -9.6199999999999994E-002    -5.2986733342129758E-037
  -9.5349999999999990E-002    -1.7138527709030859E-036
  -9.4500000000000001E-002    -3.6587054099078819E-036
  -9.3649999999999997E-002    -5.6984284149320593E-036
  -9.2799999999999994E-002    -5.5363038938251995E-036
  -9.1950000000000004E-002     1.5184343293152561E-036
  -9.1100000000000000E-002     2.2128299942354283E-035
  -9.0249999999999997E-002     6.1526886229716411E-035
  -8.9399999999999993E-002     1.1525461930162101E-034
  -8.8549999999999990E-002     1.5580212678819155E-034
  -8.7700000000000000E-002     1.1853914364016608E-034
  -8.6849999999999997E-002    -1.0087277200072266E-034
  -8.5999999999999993E-002    -6.1662695666609188E-034
  -8.5150000000000003E-002    -1.4662088241210374E-033
  -8.4300000000000000E-002    -2.4556588412900559E-033
  -8.3449999999999996E-002    -2.9659046095420939E-033
  -8.2600000000000007E-002    -1.8228582565375306E-033
  -8.1749999999999989E-002     2.5746226248694543E-033
  -8.0900000000000000E-002     1.1612872726493453E-032
  -8.0049999999999996E-002     2.5103135483706581E-032
  -7.9199999999999993E-002     3.9265964547355707E-032
  -7.8350000000000003E-002     4.4676430725839127E-032
  -7.7499999999999999E-002     2.5574969295421826E-032
  -7.6649999999999996E-002    -3.7295190530286849E-032
  -7.5800000000000006E-002    -1.5798329924425758E-031
  -7.4949999999999989E-002    -3.2957591064725979E-031
  -7.4099999999999999E-002    -5.0341817096845836E-031
  -7.3249999999999996E-002    -5.7078195309907652E-031
  -7.2399999999999992E-002    -3.6111678425037202E-031
  -7.1550000000000002E-002     3.2386219780942530E-031
  -7.0699999999999999E-002     1.6220155004205620E-030
  -6.9849999999999995E-002     3.4630133841557366E-030
  -6.9000000000000006E-002     5.3839734610438920E-030
  -6.8149999999999988E-002     6.3751960544141734E-030
  -6.7299999999999999E-002     4.8718406208359999E-030
  -6.6449999999999995E-002    -9.5941914812658956E-031
  -6.5599999999999992E-002    -1.2504742154275014E-029
  -6.4750000000000002E-002    -2.9523206685340922E-029
  -6.3899999999999998E-002    -4.8674013595817898E-029
  -6.3049999999999995E-002    -6.2226894429521743E-029
  -6.2199999999999998E-002    -5.7768654716407108E-029
  -6.1350000000000002E-002    -1.9951489305438468E-029
  -6.0499999999999998E-002     6.4742099039612196E-029
  -5.9650000000000002E-002     1.9983378354116517E-028
  -5.8799999999999998E-002     3.6816152316442345E-028
  -5.7950000000000002E-002     5.2144561503295298E-028
  -5.7099999999999998E-002     5.7507214242487223E-028
  -5.6249999999999994E-002     4.1479119549153822E-028
  -5.5400000000000005E-002    -7.7793077827029737E-029
  -5.4550000000000001E-002    -9.7671854331961282E-028
  -5.3699999999999998E-002    -2.2424231401069111E-027
  -5.2849999999999994E-002    -3.6445627464756521E-027
  -5.2000000000000005E-002    -4.7028756889128556E-027
  -5.1150000000000001E-002    -4.6845507558435022E-027
  -5.0299999999999997E-002    -2.7027495636481951E-027
  -4.9449999999999994E-002     2.0460281954566190E-027
  -4.8600000000000004E-002     9.8949108798043399E-027
  -4.7750000000000001E-002     2.0209536269500608E-026
  -4.6899999999999997E-002     3.0891571801273408E-026
  -4.6049999999999994E-002     3.8073187799759301E-026
  -4.5200000000000004E-002     3.6256961416543117E-026
  -4.4350000000000001E-002     1.9170200092202789E-026
  -4.3499999999999997E-002    -1.8471094106285081E-026
  -4.2649999999999993E-002    -7.8288337272761351E-026
  -4.1800000000000004E-002    -1.5498351915103262E-025
  -4.0950000000000000E-002    -2.3325798046123863E-025
  -4.0099999999999997E-002    -2.8611885940126995E-025
  -3.9249999999999993E-002    -2.7611859967355655E-025
  -3.8400000000000004E-002    -1.6109314281004501E-025
  -3.7550000000000000E-002     9.4534907838292647E-026
  -3.6699999999999997E-002     5.0300571753328124E-025
  -3.5850000000000007E-002     1.0330471002982607E-024
  -3.5000000000000003E-002     1.5907499849358695E-024
  -3.4150000000000000E-002     2.0085049637341170E-024
  -3.3299999999999996E-002     2.0508620991591968E-024
  -3.2450000000000007E-002     1.4463116038341466E-024
  -3.1600000000000003E-002    -4.8654646118193765E-026
  -3.0750000000000000E-002    -2.5531464152142739E-024
  -2.9899999999999996E-002    -5.9432389092516197E-024
  -2.9050000000000006E-002    -9.7343509937628865E-024
  -2.8200000000000003E-002    -1.3001776180932406E-023
  -2.7349999999999999E-002    -1.4387270659415907E-023
  -2.6499999999999996E-002    -1.2242174168603826E-023
  -2.5650000000000006E-002    -4.9464703614593334E-024
  -2.4800000000000003E-002     8.5862115258770816E-024
  -2.3949999999999999E-002     2.8256841815653108E-023
  -2.3099999999999996E-002     5.2087605080150410E-023
  -2.2250000000000006E-002     7.5664714945924543E-023
  -2.1400000000000002E-002     9.1957615878868805E-023
  -2.0549999999999999E-002     9.1783131380918505E-023
  -1.9699999999999995E-002     6.5151186780494873E-023
  -1.8850000000000006E-002     3.6126671832770783E-024
  -1.8000000000000002E-002    -9.6482478309562308E-023
  -1.7149999999999999E-002    -2.3021054277827961E-022
  -1.6299999999999995E-002    -3.8053130979173986E-022
  -1.5450000000000005E-002    -5.1606535360865697E-022
  -1.4600000000000002E-002    -5.9150584126458620E-022
  -1.3749999999999998E-002    -5.5197082370201554E-022
  -1.2899999999999995E-002    -3.4224871680281407E-022
  -1.2050000000000005E-002     7.8898362004785378E-023
  -1.1200000000000002E-002     7.2042979397903929E-022
  -1.0349999999999998E-002     1.5393486571225359E-021
  -9.5000000000000084E-003     2.4239507431398901E-021
  -8.6500000000000049E-003     3.1857198381833802E-021
  -7.8000000000000014E-003     3.5662683324591605E-021
  -6.9499999999999978E-003     3.2651379671458254E-021
  -6.1000000000000082E-003     1.9920038806711512E-021
  -5.2500000000000047E-003    -4.5740629844883085E-022
  -4.4000000000000011E-003    -4.1084047796399879E-021
  -3.5499999999999976E-003    -8.7114217429044013E-021
  -2.7000000000000079E-003    -1.3664325757920497E-020
  -1.8500000000000044E-003    -1.7979863978143129E-020
  -1.0000000000000009E-003    -2.0327048567800723E-020
  -1.4999999999999736E-004    -1.9171397338903352E-020
   6.9999999999999230E-004    -1.3027748737804480E-020
   1.5499999999999958E-003    -8.1996846065362379E-022
   2.3999999999999994E-003     1.7684585004362506E-020
   3.2500000000000029E-003     4.1428802814835355E-020
   4.0999999999999925E-003     6.7700836231410341E-020
   4.9499999999999961E-003     9.1965981293841294E-020
   5.7999999999999996E-003     1.0801786693030754E-019
   6.6499999999999893E-003     1.0855495299444757E-019
   7.5000000000000067E-003     8.6242294907695776E-020
   8.3499999999999963E-003     3.5240870147719392E-020
   9.1999999999999860E-003    -4.6917880842894287E-020
   1.0050000000000003E-002    -1.5735711475617925E-019
   1.0899999999999993E-002    -2.8614299294190554E-019
   1.1750000000000010E-002    -4.1529290674646224E-019
   1.2600000000000000E-002    -5.1899513729085125E-019
   1.3449999999999990E-002    -5.6548222464221767E-019
   1.4300000000000007E-002    -5.2084258256761328E-019
   1.5149999999999997E-002    -3.5478378832507270E-019
   1.5999999999999986E-002    -4.7982484753806596E-020
   1.6850000000000004E-002     3.9978746738177255E-019
   1.7699999999999994E-002     9.6200884064516619E-019
   1.8549999999999983E-002     1.5798908996582057E-018
   1.9400000000000001E-002     2.1607845457839072E-018
   2.0249999999999990E-002     2.5822968149531577E-018
   2.1100000000000008E-002     2.7034220974907462E-018
   2.1949999999999997E-002     2.3831879714108687E-018
   2.2799999999999987E-002     1.5061096394963991E-018
   2.3650000000000004E-002     1.2276321597528214E-020
   2.4499999999999994E-002    -2.0716782612564910E-018
   2.5349999999999984E-002    -4.6058959538740579E-018
   2.6200000000000001E-002    -7.3210427058313437E-018
   2.7049999999999991E-002    -9.8188183762821276E-018
   2.7900000000000008E-002    -1.1594738764293823E-017
   2.8749999999999998E-002    -1.2086621887006647E-017
   2.9599999999999987E-002    -1.0748972770977219E-017
   3.0450000000000005E-002    -7.1491175941124325E-018
   3.1299999999999994E-002    -1.0760747501149930E-018
   3.2149999999999984E-002     7.3517341404519629E-018
   3.3000000000000002E-002     1.7597811187241531E-017
   3.3849999999999991E-002     2.8658045450171735E-017
   3.4700000000000009E-002     3.9070021640139365E-017
   3.5549999999999998E-002     4.6997163319679845E-017
   3.6399999999999988E-002     5.0396606309471667E-017
   3.7250000000000005E-002     4.7268887611718012E-017
   3.8099999999999995E-002     3.5974638872752167E-017
   3.8949999999999985E-002     1.5588981795431298E-017
   3.9800000000000002E-002    -1.3749152592891418E-017
   4.0649999999999992E-002    -5.0546181970120256E-017
   4.1500000000000009E-002    -9.1780011502263858E-017
   4.2349999999999999E-002    -1.3289960231075007E-016
   4.3199999999999988E-002    -1.6804335414015056E-016
   4.4050000000000006E-002    -1.9050143536408892E-016
   4.4899999999999995E-002    -1.9341882326510033E-016
   4.5749999999999985E-002    -1.7070083491299595E-016
   4.6600000000000003E-002    -1.1804609609588439E-016
   4.7449999999999992E-002    -3.3996919802088109E-017
   4.8299999999999982E-002     7.9130225682139932E-017
   4.9149999999999999E-002     2.1458591173833596E-016
   4.9999999999999989E-002     3.6094931499085178E-016
   5.0850000000000006E-002     5.0243551073698162E-016
   5.1699999999999996E-002     6.1982953455206214E-016
   5.2549999999999986E-002     6.9206473302491720E-016
   5.3400000000000003E-002     6.9838570519037726E-016
   5.4249999999999993E-002     6.2095122645117683E-016
   5.5099999999999982E-002     4.4765174903898338E-016
   5.5950000000000000E-002     1.7484838853135021E-016
   5.6799999999999989E-002    -1.9030469067744406E-016
   5.7650000000000007E-002    -6.2830227754414264E-016
   5.8499999999999996E-002    -1.1068159639390176E-015
   5.9349999999999986E-002    -1.5815606350496532E-015
   6.0200000000000004E-002    -1.9986446866406358E-015
   6.1049999999999993E-002    -2.2984140778447084E-015
   6.1899999999999983E-002    -2.4206403788158683E-015
   6.2750000000000000E-002    -2.3107400277352168E-015
   6.3599999999999990E-002    -1.9265684139563086E-015
   6.4450000000000007E-002    -1.2452002926589118E-015
   6.5299999999999997E-002    -2.6903504109812972E-016
   6.6149999999999987E-002     9.6946284227869243E-016
   6.7000000000000004E-002     2.4050465402272556E-015
   6.7849999999999994E-002     3.9395541356337795E-015
   6.8699999999999983E-002     5.4447708243518421E-015
   6.9550000000000001E-002     6.7684996155592135E-015
   7.0399999999999990E-002     7.7438175025889383E-015
   7.1249999999999980E-002     8.2012434567125761E-015
   7.2099999999999997E-002     7.9832716568666277E-015
   7.2949999999999987E-002     6.9604942660620447E-015
   7.3800000000000004E-002     5.0482939167559680E-015
   7.4649999999999994E-002     2.2228994578121739E-015
   7.5499999999999984E-002    -1.4645217683557126E-015
   7.6350000000000001E-002    -5.8771646027589813E-015
   7.7199999999999991E-002    -1.0786700710444820E-014
   7.8049999999999981E-002    -1.5873528105593849E-014
   7.8899999999999998E-002    -2.0734337100430900E-014
   7.9749999999999988E-002    -2.4897815571890102E-014
   8.0600000000000005E-002    -2.7848975097285471E-014
   8.1449999999999995E-002    -2.9061962246762751E-014
   8.2299999999999984E-002    -2.8040633759197885E-014
   8.3150000000000002E-002    -2.4365327614980790E-014
   8.3999999999999991E-002    -1.7743548008803250E-014
   8.4849999999999981E-002    -8.0613405047926117E-015
   8.5699999999999998E-002     4.5685540411938697E-015
   8.6549999999999988E-002     1.9766355025057432E-014
   8.7400000000000005E-002     3.6857663157242525E-014
   8.8249999999999995E-002     5.4863678025627768E-014
   8.9099999999999985E-002     7.2513823786060498E-014
   8.9950000000000002E-002     8.8284665816880276E-014
   9.0799999999999992E-002     1.0046744041535304E-013
   9.1649999999999981E-002     1.0726495251764521E-013
   9.2499999999999999E-002     1.0691604822334198E-013
   9.3349999999999989E-002     9.7843299897877313E-014
   9.4200000000000006E-002     7.8817042218579146E-014
   9.5049999999999996E-002     4.9125774986776582E-014
   9.5899999999999985E-002     8.7407927586533183E-015
   9.6750000000000003E-002    -4.1538847157481525E-014
   9.7599999999999992E-002    -9.9976317656501702E-014
   9.8449999999999982E-002    -1.6383709908321492E-013
   9.9299999999999999E-002    -2.2939303588218521E-013
  0.10014999999999999         -2.9200241069690459E-013
  0.10099999999999998         -3.4627361465529488E-013
  0.10185000000000000         -3.8631620428741408E-013
  0.10269999999999999         -4.0607622677829894E-013
  0.10355000000000000         -3.9974719047509935E-013
  0.10439999999999999         -3.6224030920942913E-013
  0.10524999999999998         -2.8969175994254193E-013
  0.10610000000000000         -1.7997702180973765E-013
  0.10694999999999999         -3.3198872670143272E-014
  0.10779999999999998          1.4788994026523516E-013
  0.10865000000000000          3.5756882179267966E-013
  0.10949999999999999          5.8697615360404106E-013
  0.11035000000000000          8.2411714154893327E-013
  0.11119999999999999          1.0540837760913916E-012
  0.11204999999999998          1.2595077841237277E-012
  0.11290000000000000          1.4212591454782399E-012
  0.11374999999999999          1.5193844798229595E-012
  0.11459999999999998          1.5342688660261155E-012
  0.11545000000000000          1.4479833603781708E-012
  0.11629999999999999          1.2457662669295032E-012
  0.11715000000000000          9.1756637188247201E-013
  0.11799999999999999          4.5956426668197087E-013
  0.11884999999999998         -1.2442771808662453E-013
  0.11970000000000000         -8.2179252142080991E-013
  0.12054999999999999         -1.6102732801892839E-012
  0.12139999999999998         -2.4575838389591934E-012
  0.12225000000000000         -3.3215632333114697E-012
  0.12309999999999999         -4.1509548498060118E-012
  0.12395000000000000         -4.8868741636151390E-012
  0.12479999999999999         -5.4649823126527785E-012
  0.12564999999999998         -5.8183715775189613E-012
  0.12650000000000000         -5.8810931538374857E-012
  0.12734999999999999         -5.5922494555370774E-012
  0.12819999999999998         -4.9004938345748277E-012
  0.12905000000000000         -3.7687538549289430E-012
  0.12989999999999999         -2.1789449485784582E-012
  0.13074999999999998         -1.3641695487663057E-013
  0.13159999999999999          2.3261773407759339E-012
  0.13245000000000001          5.1458775821736622E-012
  0.13329999999999997          8.2275999248879430E-012
  0.13414999999999999          1.1443780977170413E-011
  0.13500000000000001          1.4635752224264921E-011
  0.13584999999999997          1.7617030954998875E-011
  0.13669999999999999          2.0178668965361000E-011
  0.13755000000000001          2.2096672658109278E-011
  0.13839999999999997          2.3141473270174101E-011
  0.13924999999999998          2.3089218670907918E-011
  0.14010000000000000          2.1734608874253428E-011
  0.14094999999999996          1.8904853250973901E-011
  0.14179999999999998          1.4474166303146439E-011
  0.14265000000000000          8.3781970626326885E-012
  0.14350000000000002          6.2759192282952377E-013
  0.14434999999999998         -8.6800951888231333E-012
  0.14520000000000000         -1.9351025655596347E-011
  0.14605000000000001         -3.1089048001192277E-011
  0.14689999999999998         -4.3493880719848216E-011
  0.14774999999999999         -5.6064192221535784E-011
  0.14860000000000001         -6.8206172785452921E-011
  0.14944999999999997         -7.9248063721938511E-011
  0.15029999999999999         -8.8460749930310373E-011
  0.15115000000000001         -9.5084402433044138E-011
  0.15199999999999997         -9.8360835482113413E-011
  0.15284999999999999         -9.7570816767271473E-011
  0.15370000000000000         -9.2075408144471429E-011
  0.15454999999999997         -8.1360050274782375E-011
  0.15539999999999998         -6.5079650116801523E-011
  0.15625000000000000         -4.3103008181075054E-011
  0.15709999999999996         -1.5554360975880956E-011
  0.15794999999999998          1.7150117514137712E-011
  0.15880000000000000          5.4273082633184314E-011
  0.15965000000000001          9.4736388400838267E-011
  0.16049999999999998          1.3711308829854598E-010
  0.16134999999999999          1.7963291284571458E-010
  0.16220000000000001          2.2020295487454447E-010
  0.16304999999999997          2.5644451284367254E-010
  0.16389999999999999          2.8574671275879897E-010
  0.16475000000000001          3.0533721634380402E-010
  0.16559999999999997          3.1236917309943252E-010
  0.16644999999999999          3.0402350179068243E-010
  0.16730000000000000          2.7762454640867028E-010
  0.16814999999999997          2.3076698310230479E-010
  0.16899999999999998          1.6145109186477627E-010
  0.16985000000000000          6.8222984759662216E-011
  0.17069999999999996         -4.9683186128859069E-011
  0.17154999999999998         -1.9220492853086156E-010
  0.17240000000000000         -3.5831631880145247E-010
  0.17325000000000002         -5.4590121405592220E-010
  0.17409999999999998         -7.5163731515963007E-010
  0.17494999999999999         -9.7089297045502413E-010
  0.17580000000000001         -1.1976376654828380E-009
  0.17664999999999997         -1.4243659029300252E-009
  0.17749999999999999         -1.6420330861289512E-009
  0.17835000000000001         -1.8399998309206861E-009
  0.17919999999999997         -2.0059796620572646E-009
  0.18004999999999999         -2.1259870301291740E-009
  0.18090000000000001         -2.1842692539689992E-009
  0.18174999999999997         -2.1632225051798756E-009
  0.18259999999999998         -2.0432722234112288E-009
  0.18345000000000000         -1.8027056721224175E-009
  0.18429999999999996         -1.4174442414804569E-009
  0.18514999999999998         -8.6073690402706089E-010
  0.18600000000000000         -1.0275302011084747E-010
  0.18684999999999996          8.8994701142738486E-010
  0.18769999999999998          2.1550722732860772E-009
  0.18855000000000000          3.7354304132209815E-009
  0.18940000000000001          5.6799327092730060E-009
  0.19024999999999997          8.0448265170706747E-009
  0.19109999999999999          1.0895142390164758E-008
  0.19195000000000001          1.4306422425000773E-008
  0.19279999999999997          1.8366719348428242E-008
  0.19364999999999999          2.3178914364463640E-008
  0.19450000000000001          2.8863386376948692E-008
  0.19534999999999997          3.5561057562028918E-008
  0.19619999999999999          4.3436861757594254E-008
  0.19705000000000000          5.2683621522297640E-008
  0.19789999999999996          6.3526443265685967E-008
  0.19874999999999998          7.6227639422669653E-008
  0.19960000000000000          9.1092161130020809E-008
  0.20044999999999996          1.0847370207102068E-007
  0.20129999999999998          1.2878143973429823E-007
  0.20215000000000000          1.5248747680513516E-007
  0.20300000000000001          1.8013510917000718E-007
  0.20384999999999998          2.1234782081891799E-007
  0.20469999999999999          2.4983933430183059E-007
  0.20555000000000001          2.9342435288580265E-007
  0.20639999999999997          3.4403046416369884E-007
  0.20724999999999999          4.0271128018826125E-007
  0.20810000000000001          4.7066018914546881E-007
  0.20894999999999997          5.4922592233738760E-007
  0.20979999999999999          6.3992889870650691E-007
  0.21065000000000000          7.4447874462768456E-007
  0.21149999999999997          8.6479354740597988E-007
  0.21234999999999998          1.0030201047257256E-006
  0.21320000000000000          1.1615548408178667E-006
  0.21404999999999996          1.3430668315360579E-006
  0.21489999999999998          1.5505216271057161E-006
  0.21575000000000000          1.7872053208095639E-006
  0.21659999999999996          2.0567509156643054E-006
  0.21744999999999998          2.3631640972457257E-006
  0.21829999999999999          2.7108487311636567E-006
  0.21915000000000001          3.1046352955808161E-006
  0.21999999999999997          3.5498056603962929E-006
  0.22084999999999999          4.0521194569307850E-006
  0.22170000000000001          4.6178376035094753E-006
  0.22254999999999997          5.2537445541424479E-006
  0.22339999999999999          5.9671710508661124E-006
  0.22425000000000000          6.7660099256188859E-006
  0.22509999999999997          7.6587271832426920E-006
  0.22594999999999998          8.6543742597450743E-006
  0.22680000000000000          9.7625829189039650E-006
  0.22764999999999996          1.0993576408138201E-005
  0.22849999999999998          1.2358142261962060E-005
  0.22935000000000000          1.3867622911178340E-005
  0.23019999999999996          1.5533885236781870E-005
  0.23104999999999998          1.7369275959105301E-005
  0.23190000000000000          1.9386569006635992E-005
  0.23275000000000001          2.1598905220159172E-005
  0.23359999999999997          2.4019714295062939E-005
  0.23444999999999999          2.6662613434740328E-005
  0.23530000000000001          2.9541307705631429E-005
  0.23614999999999997          3.2669446101542854E-005
  0.23699999999999999          3.6060495066690188E-005
  0.23785000000000001          3.9727564353384650E-005
  0.23869999999999997          4.3683238624225843E-005
  0.23954999999999999          4.7939358318549246E-005
  0.24040000000000000          5.2506810519541703E-005
  0.24124999999999996          5.7395312768832042E-005
  0.24209999999999998          6.2613131279536482E-005
  0.24295000000000000          6.8166823559118929E-005
  0.24379999999999996          7.4060972020569888E-005
  0.24464999999999998          8.0297818514347874E-005
  0.24550000000000000          8.6877086450683650E-005
  0.24634999999999996          9.3795520633389677E-005
  0.24719999999999998          1.0104664261782742E-004
  0.24804999999999999          1.0862044932826353E-004
  0.24890000000000001          1.1650303710066239E-004
  0.24974999999999997          1.2467633434225177E-004
  0.25059999999999999          1.3311775631530594E-004
  0.25145000000000001          1.4179992800814986E-004
  0.25229999999999997          1.5069046066175230E-004
  0.25314999999999999          1.5975172209270873E-004
  0.25400000000000000          1.6894052431139090E-004
  0.25484999999999997          1.7820809688323238E-004
  0.25569999999999998          1.8749985015148018E-004
  0.25655000000000000          1.9675548718209077E-004
  0.25739999999999996          2.0590882491495918E-004
  0.25824999999999998          2.1488785173739381E-004
  0.25910000000000000          2.2361495450022101E-004
  0.25994999999999996          2.3200717595852672E-004
  0.26079999999999998          2.3997621189022526E-004
  0.26164999999999999          2.4742912336543394E-004
  0.26249999999999996          2.5426844469281728E-004
  0.26334999999999997          2.6039302610016937E-004
  0.26419999999999999          2.6569843571258361E-004
  0.26505000000000001          2.7007771644391046E-004
  0.26589999999999997          2.7342233494649805E-004
  0.26674999999999999          2.7562263758778443E-004
  0.26760000000000000          2.7656943023202861E-004
  0.26844999999999997          2.7615430790379044E-004
  0.26929999999999998          2.7427145629529981E-004
  0.27015000000000000          2.7081840044064682E-004
  0.27099999999999996          2.6569720406486365E-004
  0.27184999999999998          2.5881583466671744E-004
  0.27270000000000000          2.5008948235883744E-004
  0.27354999999999996          2.3944138085397001E-004
  0.27439999999999998          2.2680483876397436E-004
  0.27524999999999999          2.1212406058447096E-004
  0.27609999999999996          1.9535509031515789E-004
  0.27694999999999997          1.7646753733207990E-004
  0.27779999999999999          1.5544531032194285E-004
  0.27865000000000001          1.3228817028071785E-004
  0.27949999999999997          1.0701186343045231E-004
  0.28034999999999999          7.9649532193116178E-005
  0.28120000000000001          5.0251929657327618E-005
  0.28204999999999997          1.8888236829412858E-005
  0.28289999999999998         -1.4353479879467391E-005
  0.28375000000000000         -4.9366865318868773E-005
  0.28459999999999996         -8.6026341795431265E-005
  0.28544999999999998         -1.2418800975571702E-004
  0.28630000000000000         -1.6368982868140045E-004
  0.28714999999999996         -2.0435224552687703E-004
  0.28799999999999998         -2.4597912995677154E-004
  0.28885000000000000         -2.8835871951382206E-004
  0.28969999999999996         -3.3126521906441669E-004
  0.29054999999999997         -3.7445945227281176E-004
  0.29139999999999999         -4.1769172468696548E-004
  0.29224999999999995         -4.6070259971355855E-004
  0.29309999999999997         -5.0322511433043894E-004
  0.29394999999999999         -5.4498727820584630E-004
  0.29480000000000001         -5.8571371612620333E-004
  0.29564999999999997         -6.2512848361022540E-004
  0.29649999999999999         -6.6295733576480337E-004
  0.29735000000000000         -6.9893022049796001E-004
  0.29819999999999997         -7.3278329104384417E-004
  0.29904999999999998         -7.6426204354400557E-004
  0.29990000000000000         -7.9312304971677146E-004
  0.30074999999999996         -8.1913678822513212E-004
  0.30159999999999998         -8.4208943926061114E-004
  0.30245000000000000         -8.6178535977854637E-004
  0.30329999999999996         -8.7804875886935015E-004
  0.30414999999999998         -8.9072535147952472E-004
  0.30499999999999999         -8.9968414946500438E-004
  0.30584999999999996         -9.0481853018889804E-004
  0.30669999999999997         -9.0604761253144114E-004
  0.30754999999999999         -9.0331672586275319E-004
  0.30840000000000001         -8.9659821198517168E-004
  0.30924999999999997         -8.8589165883986654E-004
  0.31009999999999999         -8.7122389099737860E-004
  0.31095000000000000         -8.5264851015163351E-004
  0.31179999999999997         -8.3024577547338642E-004
  0.31264999999999998         -8.0412103416243404E-004
  0.31350000000000000         -7.7440412507878329E-004
  0.31434999999999996         -7.4124813915678539E-004
  0.31519999999999998         -7.0482769116706737E-004
  0.31605000000000000         -6.6533693726539029E-004
  0.31689999999999996         -6.2298815268985858E-004
  0.31774999999999998         -5.7800917086405195E-004
  0.31859999999999999         -5.3064175325505760E-004
  0.31944999999999996         -4.8113890733522468E-004
  0.32029999999999997         -4.2976247820912056E-004
  0.32114999999999999         -3.7678132038226924E-004
  0.32199999999999995         -3.2246832319895693E-004
  0.32284999999999997         -2.6709862488211145E-004
  0.32369999999999999         -2.1094700387175777E-004
  0.32455000000000001         -1.5428601268926937E-004
  0.32539999999999997         -9.7383706821720523E-005
  0.32624999999999998         -4.0501812723986726E-005
  0.32710000000000000          1.6106015727704673E-005
  0.32794999999999996          7.2195590343012670E-005
  0.32879999999999998          1.2753414868458580E-004
  0.32965000000000000          1.8190061822305318E-004
  0.33049999999999996          2.3508741011453552E-004
  0.33134999999999998          2.8690039058554213E-004
  0.33220000000000000          3.3716003505649924E-004
  0.33304999999999996          3.8570145455694396E-004
  0.33389999999999997          4.3237473765996910E-004
  0.33474999999999999          4.7704483687758539E-004
  0.33559999999999995          5.1959100433322466E-004
  0.33644999999999997          5.5990695744808716E-004
  0.33729999999999999          5.9789996026867950E-004
  0.33815000000000001          6.3349053010685295E-004
  0.33899999999999997          6.6661146161384774E-004
  0.33984999999999999          6.9720734193889997E-004
  0.34070000000000000          7.2523352772409678E-004
  0.34154999999999996          7.5065504984844777E-004
  0.34239999999999998          7.7344645193268182E-004
  0.34325000000000000          7.9359037086771864E-004