 -0.12000000000000000          0.0000000000000000
 -0.11914999999999999          0.0000000000000000
 -0.11830000000000000          0.0000000000000000
 -0.11745000000000000         -1.3856112278791910E-017
 -0.11660000000000000         -7.7496296381345344E-017
 -0.11574999999999999         -2.2607098984324423E-016
 -0.11490000000000000         -4.3486325541399907E-016
 -0.11405000000000000         -5.5768089550615077E-016
 -0.11320000000000000         -3.2973739543337443E-016
 -0.11234999999999999          5.0011729337053180E-016
 -0.11150000000000000          1.8987411749567195E-015
 -0.11065000000000000          3.2311143509086721E-015
 -0.10979999999999999          3.0915305892127916E-015
 -0.10894999999999999         -4.7578355718692375E-016
 -0.10810000000000000         -9.1995546936058068E-015
 -0.10725000000000000         -2.3295633399137336E-014
 -0.10639999999999999         -4.0035733386043413E-014
 -0.10554999999999999         -5.2840176150401007E-014
 -0.10470000000000000         -5.1704695226525092E-014
 -0.10385000000000000         -2.5598132736809422E-014
 -0.10299999999999999          3.3091110960066318E-014
 -0.10214999999999999          1.2285928010300400E-013
 -0.10130000000000000          2.2790471501450644E-013
 -0.10045000000000000          3.1590773407070358E-013
  -9.9599999999999994E-002     3.4123140297756384E-013
  -9.8750000000000004E-002     2.5504622302560480E-013
  -9.7900000000000001E-002     2.1931492527707604E-014
  -9.7049999999999997E-002    -3.6010705020295418E-013
  -9.6199999999999994E-002    -8.4183773998580222E-013
  -9.5349999999999990E-002    -1.3144628868048400E-012
  -9.4500000000000001E-002    -1.6176953940278388E-012
  -9.3649999999999997E-002    -1.5684661714312879E-012
  -9.2799999999999994E-002    -1.0093344538779985E-012
  -9.1950000000000004E-002     1.3099724372880387E-013
  -9.1100000000000000E-002     1.7792138514410418E-012
  -9.0249999999999997E-002     3.6794787854703448E-012
  -8.9399999999999993E-002     5.3947669381008428E-012
  -8.8549999999999990E-002     6.3608025220612389E-012
  -8.7700000000000000E-002     5.9952097577907224E-012
  -8.6849999999999997E-002     3.8498545636903973E-012
  -8.5999999999999993E-002    -2.2101713746453924E-013
  -8.5150000000000003E-002    -5.9163156604713584E-012
  -8.4300000000000000E-002    -1.2411550593333001E-011
  -8.3449999999999996E-002    -1.8388976642847262E-011
  -8.2600000000000007E-002    -2.2196758405623446E-011
  -8.1749999999999989E-002    -2.2133939316582575E-011
  -8.0900000000000000E-002    -1.6827807622977303E-011
  -8.0049999999999996E-002    -5.6418718225549865E-012
  -7.9199999999999993E-002     1.0966982573480304E-011
  -7.8350000000000003E-002     3.1229161053009616E-011
  -7.7499999999999999E-002     5.2055665659447510E-011
  -7.6649999999999996E-002     6.9289975719000141E-011
  -7.5800000000000006E-002     7.8222778528022269E-011
  -7.4949999999999989E-002     7.4326192412413864E-011
  -7.4099999999999999E-002     5.4119851235092835E-011
  -7.3249999999999996E-002     1.6046721926758915E-011
  -7.2399999999999992E-002    -3.8779579847633290E-011
  -7.1550000000000002E-002    -1.0609308131539286E-010
  -7.0699999999999999E-002    -1.7837405885604206E-010
  -6.9849999999999995E-002    -2.4520555243201094E-010
  -6.9000000000000006E-002    -2.9411742539936230E-010
  -6.8149999999999988E-002    -3.1189241945765574E-010
  -6.7299999999999999E-002    -2.8625138885696172E-010
  -6.6449999999999995E-002    -2.0777992395005779E-010
  -6.5599999999999992E-002    -7.1906072440601289E-011
  -6.4750000000000002E-002     1.1930221125407567E-010
  -6.3899999999999998E-002     3.5578057138264205E-010
  -6.3049999999999995E-002     6.1881494875471359E-010
  -6.2199999999999998E-002     8.8133037442884255E-010
  -6.1350000000000002E-002     1.1092860510790831E-009
  -6.0499999999999998E-002     1.2642385307526678E-009
  -5.9650000000000002E-002     1.3069802311310530E-009
  -5.8799999999999998E-002     1.2020038633344416E-009
  -5.7950000000000002E-002     9.2237440204185414E-010
  -5.7099999999999998E-002     4.5447387220983654E-010
  -5.6249999999999994E-002    -1.9796458936630498E-010
  -5.5400000000000005E-002    -1.0110774961519134E-009
  -5.4550000000000001E-002    -1.9397487769092835E-009
  -5.3699999999999998E-002    -2.9183054443766320E-009
  -5.2849999999999994E-002    -3.8629279963324861E-009
  -5.2000000000000005E-002    -4.6753814749802255E-009
  -5.1150000000000001E-002    -5.2474610812414838E-009
  -5.0299999999999997E-002    -5.4654531464508072E-009
  -4.9449999999999994E-002    -5.2139260479212289E-009
  -4.8600000000000004E-002    -4.3783855094157771E-009
  -4.7750000000000001E-002    -2.8465702501684935E-009
  -4.6899999999999997E-002    -5.0851789893810686E-010
  -4.6049999999999994E-002     2.7442495013293352E-009
  -4.5200000000000004E-002     7.0198718580212323E-009
  -4.4350000000000001E-002     1.2427152146914766E-008
  -4.3499999999999997E-002     1.9076164604443278E-008
  -4.2649999999999993E-002     2.7078589062675361E-008
  -4.1800000000000004E-002     3.6548355238367262E-008
  -4.0950000000000000E-002     4.7603506965696852E-008
  -4.0099999999999997E-002     6.0370612404832489E-008
  -3.9249999999999993E-002     7.4992764274442307E-008
  -3.8400000000000004E-002     9.1642145808830852E-008
  -3.7550000000000000E-002     1.1053736278844505E-007
  -3.6699999999999997E-002     1.3196507120670145E-007
  -3.5850000000000007E-002     1.5630481698103016E-007
  -3.5000000000000003E-002     1.8405485120373655E-007
  -3.4150000000000000E-002     2.1585727528295140E-007
  -3.3299999999999996E-002     2.5251971372940141E-007
  -3.2450000000000007E-002     2.9503236996405508E-007
  -3.1600000000000003E-002     3.4457937105208795E-007
  -3.0750000000000000E-002     4.0254507579246210E-007
  -2.9899999999999996E-002     4.7051614332756129E-007
  -2.9050000000000006E-002     5.5028193115002843E-007
  -2.8200000000000003E-002     6.4383615652920327E-007
  -2.7349999999999999E-002     7.5338248326299150E-007
  -2.6499999999999996E-002     8.8134667875761619E-007
  -2.5650000000000006E-002     1.0303986591038729E-006
  -2.4800000000000003E-002     1.2034815318672862E-006
  -2.3949999999999999E-002     1.4038515791357163E-006
  -2.3099999999999996E-002     1.6351257321006355E-006
  -2.2250000000000006E-002     1.9013326458767249E-006
  -2.1400000000000002E-002     2.2069707025113284E-006
  -2.0549999999999999E-002     2.5570624966829313E-006
  -1.9699999999999995E-002     2.9572121856508066E-006
  -1.8850000000000006E-002     3.4136546866035484E-006
  -1.8000000000000002E-002     3.9333066518189595E-006
  -1.7149999999999999E-002     4.5238073447663795E-006
  -1.6299999999999995E-002     5.1935634351619969E-006
  -1.5450000000000005E-002     5.9517816380929754E-006
  -1.4600000000000002E-002     6.8085112381904583E-006
  -1.3749999999999998E-002     7.7746866987215680E-006
  -1.2899999999999995E-002     8.8621608510667250E-006
  -1.2050000000000005E-002     1.0083754304963158E-005
  -1.1200000000000002E-002     1.1453289973822369E-005
  -1.0349999999999998E-002     1.2985647249325088E-005
  -9.5000000000000084E-003     1.4696785328165958E-005
  -8.6500000000000049E-003     1.6603774166984313E-005
  -7.8000000000000014E-003     1.8724812510947177E-005
  -6.9499999999999978E-003     2.1079231987558909E-005
  -6.1000000000000082E-003     2.3687432893761197E-005
  -5.2500000000000047E-003     2.6570865982990196E-005
  -4.4000000000000011E-003     2.9751940792476875E-005
  -3.5499999999999976E-003     3.3253924719002097E-005
  -2.7000000000000079E-003     3.7100776878401921E-005
  -1.8500000000000044E-003     4.1317053993743773E-005
  -1.0000000000000009E-003     4.5927679201368626E-005
  -1.4999999999999736E-004     5.0957778322520170E-005
   6.9999999999999230E-004     5.6432487431422838E-005
   1.5499999999999958E-003     6.2376692674810265E-005
   2.3999999999999994E-003     6.8814829312908909E-005
   3.2500000000000029E-003     7.5770547385257931E-005
   4.0999999999999925E-003     8.3266489725601799E-005
   4.9499999999999961E-003     9.1323891854266660E-005
   5.7999999999999996E-003     9.9962198225504292E-005
   6.6499999999999893E-003     1.0919861076267616E-004
   7.5000000000000067E-003     1.1904762488391062E-004
   8.3499999999999963E-003     1.2952043238055255E-004
   9.1999999999999860E-003     1.4062459126503525E-004
   1.0050000000000003E-002     1.5236312172994349E-004
   1.0899999999999993E-002     1.6473406168229825E-004
   1.1750000000000010E-002     1.7772995654603547E-004
   1.2600000000000000E-002     1.9133714686356978E-004
   1.3449999999999990E-002     2.0553523714000009E-004
   1.4300000000000007E-002     2.2029647052850714E-004
   1.5149999999999997E-002     2.3558529517712299E-004
   1.5999999999999986E-002     2.5135788315251381E-004
   1.6850000000000004E-002     2.6756172130365237E-004
   1.7699999999999994E-002     2.8413463651289736E-004
   1.8549999999999983E-002     3.0100506675660347E-004
   1.9400000000000001E-002     3.1809117921853552E-004
   2.0249999999999990E-002     3.3530097975781212E-004
   2.1100000000000008E-002     3.5253173431266265E-004
   2.1949999999999997E-002     3.6967013360974708E-004
   2.2799999999999987E-002     3.8659184022936502E-004
   2.3650000000000004E-002     4.0316219418704853E-004
   2.4499999999999994E-002     4.1923629872001945E-004
   2.5349999999999984E-002     4.3465912012938599E-004
   2.6200000000000001E-002     4.4926631842716553E-004
   2.7049999999999991E-002     4.6288562971115877E-004
   2.7900000000000008E-002     4.7533699126656994E-004
   2.8749999999999998E-002     4.8643371879593736E-004
   2.9599999999999987E-002     4.9598429766198706E-004
   3.0450000000000005E-002     5.0379337717540679E-004
   3.1299999999999994E-002     5.0966403872673293E-004
   3.2149999999999984E-002     5.1339798314538202E-004
   3.3000000000000002E-002     5.1479958994164461E-004
   3.3849999999999991E-002     5.1367567460619112E-004
   3.4700000000000009E-002     5.0983927441918691E-004
   3.5549999999999998E-002     5.0311138556611928E-004
   3.6399999999999988E-002     4.9332261077687984E-004
   3.7250000000000005E-002     4.8031605000032783E-004
   3.8099999999999995E-002     4.6394951477780281E-004
   3.8949999999999985E-002     4.4410001694453048E-004
   3.9800000000000002E-002     4.2066213834071430E-004
   4.0649999999999992E-002     3.9355325446039377E-004
   4.1500000000000009E-002     3.6271573915392985E-004
   4.2349999999999999E-002     3.2811720340685424E-004
   4.3199999999999988E-002     2.8975431015453539E-004
   4.4050000000000006E-002     2.4765436469624579E-004
   4.4899999999999995E-002     2.0187632467007289E-004
   4.5749999999999985E-002     1.5251178632763289E-004
   4.6600000000000003E-002     9.9686901916287295E-005
   4.7449999999999992E-002     4.3562283957784587E-005
   4.8299999999999982E-002    -1.5665966626181469E-005
   4.9149999999999999E-002    -7.7766827568741698E-005
   4.9999999999999989E-002    -1.4247563208659496E-004
   5.0850000000000006E-002    -2.0949224271596444E-004
   5.1699999999999996E-002    -2.7848494191648075E-004
   5.2549999999999986E-002    -3.4909177367524246E-004
   5.3400000000000003E-002    -4.2092073832879174E-004
   5.4249999999999993E-002    -4.9355555767873946E-004
   5.5099999999999982E-002    -5.6655366013428667E-004
   5.5950000000000000E-002    -6.3945519187339470E-004
   5.6799999999999989E-002    -7.1178151031916397E-004
   5.7650000000000007E-002    -7.8304318371381985E-004
   5.8499999999999996E-002    -8.5274009863576324E-004
   5.9349999999999986E-002    -9.2037047950025005E-004
   6.0200000000000004E-002    -9.8543138083070914E-004
   6.1049999999999993E-002    -1.0474265549817437E-003
   6.1899999999999983E-002    -1.1058690846433091E-003
   6.2750000000000000E-002    -1.1602872885358739E-003
   6.3599999999999990E-002    -1.2102296100277271E-003
   6.4450000000000007E-002    -1.2552684424581456E-003
   6.5299999999999997E-002    -1.2950059800781494E-003
   6.6149999999999987E-002    -1.3290773554217579E-003
   6.7000000000000004E-002    -1.3571554699349335E-003
   6.7849999999999994E-002    -1.3789544572716816E-003
   6.8699999999999983E-002    -1.3942325373662219E-003
   6.9550000000000001E-002    -1.4027971925344158E-003
   7.0399999999999990E-002    -1.4045046941403158E-003
   7.1249999999999980E-002    -1.3992635987067807E-003
   7.2099999999999997E-002    -1.3870367094746168E-003
   7.2949999999999987E-002    -1.3678404553124665E-003
   7.3800000000000004E-002    -1.3417464932344646E-003
   7.4649999999999994E-002    -1.3088802290865912E-003
   7.5499999999999984E-002    -1.2694206031401551E-003
   7.6350000000000001E-002    -1.2235991855015713E-003
   7.7199999999999991E-002    -1.1716973797875965E-003
   7.8049999999999981E-002    -1.1140436668189179E-003
   7.8899999999999998E-002    -1.0510112441272936E-003
   7.9749999999999988E-002    -9.8301471184445094E-004
   8.0600000000000005E-002    -9.1050534470002648E-004
   8.1449999999999995E-002    -8.3396878829413920E-004
   8.2299999999999984E-002    -7.5391664669379583E-004
   8.3150000000000002E-002    -6.7088520164484738E-004
   8.3999999999999991E-002    -5.8542730824311714E-004
   8.4849999999999981E-002    -4.9811113979993126E-004
   8.5699999999999998E-002    -4.0950899467247969E-004
   8.6549999999999988E-002    -3.2019767802955452E-004
   8.7400000000000005E-002    -2.3074914336619048E-004
   8.8249999999999995E-002    -1.4172939350429715E-004
   8.9099999999999985E-002    -5.3687549657239987E-005
   8.9950000000000002E-002     3.2841997791432465E-005
   9.0799999999999992E-002     1.1734773384112796E-004
   9.1649999999999981E-002     1.9934547784700163E-004
   9.2499999999999999E-002     2.7837986283853021E-004
   9.3349999999999989E-002     3.5403286048898606E-004
   9.4200000000000006E-002     4.2591987995138159E-004
   9.5049999999999996E-002     4.9369668034649383E-004
   9.5899999999999985E-002     5.5706077162903287E-004
   9.6750000000000003E-002     6.1575141599217093E-004
   9.7599999999999992E-002     6.6955229769111906E-004
   9.8449999999999982E-002     7.1829012798258515E-004
   9.9299999999999999E-002     7.6183815105621412E-004
  0.10014999999999999          8.0011065134902868E-004
  0.10099999999999998          8.3306709500026118E-004
  0.10185000000000000          8.6070787124967847E-004
  0.10269999999999999          8.8307516332376389E-004
  0.10355000000000000          9.0024740355817111E-004
  0.10439999999999999          9.1233963454800168E-004
  0.10524999999999998          9.1950103372588263E-004
  0.10610000000000000          9.2190942465465915E-004
  0.10694999999999999          9.1977309316818934E-004
  0.10779999999999998          9.1332243942600973E-004
  0.10865000000000000          9.0280767535868319E-004
  0.10949999999999999          8.8849939213512977E-004
  0.11035000000000000          8.7068196637555802E-004
  0.11119999999999999          8.4965003355421884E-004
  0.11204999999999998          8.2570686516324860E-004
  0.11290000000000000          7.9916039115182711E-004
  0.11374999999999999          7.7032058977567763E-004
  0.11459999999999998          7.3949688452221694E-004
  0.11545000000000000          7.0699533208106434E-004
  0.11629999999999999          6.7311580019962386E-004
  0.11715000000000000          6.3815005029006170E-004
  0.11799999999999999          6.0237920644862816E-004
  0.11884999999999998          5.6607190499995228E-004
  0.11970000000000000          5.2948309439420239E-004
  0.12054999999999999          4.9285208438428635E-004
  0.12139999999999998          4.5640193034171322E-004
  0.12225000000000000          4.2033868676883085E-004
  0.12309999999999999          3.8485072857692427E-004
  0.12395000000000000          3.5010856830113691E-004
  0.12479999999999999          3.1626494647749855E-004
  0.12564999999999998          2.8345522130960275E-004
  0.12650000000000000          2.5179666352698367E-004
  0.12734999999999999          2.2138971868712872E-004
  0.12819999999999998          1.9231792905651408E-004
  0.12905000000000000          1.6464832669930879E-004
  0.12989999999999999          1.3843265243631663E-004
  0.13074999999999998          1.1370782589080187E-004
  0.13159999999999999          9.0496650485533882E-005
  0.13245000000000001          6.8809459460607295E-005
  0.13329999999999997          4.8645096939711066E-005
  0.13414999999999999          2.9990907514588138E-005
  0.13500000000000001          1.2825461891511384E-005
  0.13584999999999997         -2.8810102490979232E-006
  0.13669999999999999         -1.7165979686912442E-005
  0.13755000000000001         -3.0073459491339259E-005
  0.13839999999999997         -4.1653144196735840E-005
  0.13924999999999998         -5.1958828245127206E-005
  0.14010000000000000         -6.1048335305011935E-005
  0.14094999999999996         -6.8982217765864543E-005
  0.14179999999999998         -7.5823087802484720E-005
  0.14265000000000000         -8.1635019047300670E-005
  0.14350000000000002         -8.6482254124869669E-005
  0.14434999999999998         -9.0429770336475636E-005
  0.14520000000000000         -9.3541729934050843E-005
  0.14605000000000001         -9.5881880352752935E-005
  0.14689999999999998         -9.7512963248981498E-005
  0.14774999999999999         -9.8496536699269201E-005
  0.14860000000000001         -9.8892323241501871E-005
  0.14944999999999997         -9.8758874709004019E-005
  0.15029999999999999         -9.8152341808061013E-005
  0.15115000000000001         -9.7126744620841418E-005
  0.15199999999999997         -9.5733381291341938E-005
  0.15284999999999999         -9.4020776413082587E-005
  0.15370000000000000         -9.2033993351916881E-005
  0.15454999999999997         -8.9815690590399570E-005
  0.15539999999999998         -8.7404790733943010E-005
  0.15625000000000000         -8.4837588041740519E-005
  0.15709999999999996         -8.2147206955022426E-005
  0.15794999999999998         -7.9364538997410595E-005
  0.15880000000000000         -7.6517671468778758E-005
  0.15965000000000001         -7.3632603823087006E-005
  0.16049999999999998         -7.0732933723851817E-005
  0.16134999999999999         -6.7839825176039707E-005
  0.16220000000000001         -6.4971989171484291E-005
  0.16304999999999997         -6.2145738306663604E-005
  0.16389999999999999         -5.9374869461886553E-005
  0.16475000000000001         -5.6670754218425037E-005
  0.16559999999999997         -5.4042465120891978E-005
  0.16644999999999999         -5.1497045200914360E-005
  0.16730000000000000         -4.9039564401419260E-005
  0.16814999999999997         -4.6673898544376896E-005
  0.16899999999999998         -4.4402490354465785E-005
  0.16985000000000000         -4.2226735455262695E-005
  0.17069999999999996         -4.0147334578982338E-005
  0.17154999999999998         -3.8164101458608858E-005
  0.17240000000000000         -3.6276118913267758E-005
  0.17325000000000002         -3.4481841376128109E-005
  0.17409999999999998         -3.2779040603227526E-005
  0.17494999999999999         -3.1165210193015883E-005
  0.17580000000000001         -2.9637216447542101E-005
  0.17664999999999997         -2.8191754930101547E-005
  0.17749999999999999         -2.6825691586789913E-005
  0.17835000000000001         -2.5535710453817625E-005
  0.17919999999999997         -2.4318707575492762E-005
  0.18004999999999999         -2.3171590317016137E-005
  0.18090000000000001         -2.2091578754475865E-005
  0.18174999999999997         -2.1075847111155481E-005
  0.18259999999999998         -2.0121737118755549E-005
  0.18345000000000000         -1.9226487649807425E-005
  0.18429999999999996         -1.8387556413609549E-005
  0.18514999999999998         -1.7602451972618161E-005
  0.18600000000000000         -1.6868793363660000E-005
  0.18684999999999996         -1.6184468459005548E-005
  0.18769999999999998         -1.5547430434005440E-005
  0.18855000000000000         -1.4955793778364065E-005
  0.18940000000000001         -1.4407790365287499E-005
  0.19024999999999997         -1.3901586455686960E-005
  0.19109999999999999         -1.3435167851932131E-005
  0.19195000000000001         -1.3006223521118710E-005
  0.19279999999999997         -1.2612155153212881E-005
  0.19364999999999999         -1.2249985082377570E-005
  0.19450000000000001         -1.1916524015926929E-005
  0.19534999999999997         -1.1608374129461728E-005
  0.19619999999999999         -1.1322078863925301E-005
  0.19705000000000000         -1.1054250288865298E-005
  0.19789999999999996         -1.0801728113574696E-005
  0.19874999999999998         -1.0561620750168098E-005
  0.19960000000000000         -1.0331129804062067E-005
  0.20044999999999996         -1.0107682012433504E-005
  0.20129999999999998         -9.8887609273270457E-006
  0.20215000000000000         -9.6718618459910608E-006
  0.20300000000000001         -9.4545733563579354E-006
  0.20384999999999998         -9.2345240486842809E-006
  0.20469999999999999         -9.0096116938304684E-006
  0.20555000000000001         -8.7781178078867433E-006
  0.20639999999999997         -8.5387565055816232E-006
  0.20724999999999999         -8.2909073932274577E-006
  0.20810000000000001         -8.0345403300679417E-006
  0.20894999999999997         -7.7702550299249585E-006
  0.20979999999999999         -7.4991651223503773E-006
  0.21065000000000000         -7.2226793600836199E-006
  0.21149999999999997         -6.9423422904374471E-006
  0.21234999999999998         -6.6596825899208326E-006
  0.21320000000000000         -6.3761226633012451E-006
  0.21404999999999996         -6.0929115080122807E-006
  0.21489999999999998         -5.8111586565252920E-006
  0.21575000000000000         -5.5319888653556745E-006
  0.21659999999999996         -5.2565604742525651E-006
  0.21744999999999998         -4.9862194282841461E-006
  0.21829999999999999         -4.7225400991950429E-006
  0.21915000000000001         -4.4672479296180417E-006
  0.21999999999999997         -4.2221362616648293E-006
  0.22084999999999999         -3.9889694095978068E-006
  0.22170000000000001         -3.7692799325119036E-006
  0.22254999999999997         -3.5641961203781553E-006
  0.22339999999999999         -3.3744202762247006E-006
  0.22425000000000000         -3.2000970812662745E-006
  0.22509999999999997         -3.0408848444515626E-006
  0.22594999999999998         -2.8961051673031966E-006
  0.22680000000000000         -2.7647367209816284E-006
  0.22764999999999996         -2.6456007817043916E-006
  0.22849999999999998         -2.5374848693920614E-006
  0.22935000000000000         -2.4392171770249403E-006
  0.23019999999999996         -2.3496998696589150E-006
  0.23104999999999998         -2.2679595823421940E-006
  0.23190000000000000         -2.1931788254573010E-006
  0.23275000000000001         -2.1246453281567223E-006
  0.23359999999999997         -2.0617907776895007E-006
  0.23444999999999999         -2.0041841988885417E-006
  0.23530000000000001         -1.9515432543003285E-006
  0.23614999999999997         -1.9037581840302181E-006
  0.23699999999999999         -1.8608509413891164E-006
  0.23785000000000001         -1.8229506084173820E-006
  0.23869999999999997         -1.7902517874528740E-006
  0.23954999999999999         -1.7629883077253574E-006
  0.24040000000000000         -1.7413135351973132E-006
  0.24124999999999996         -1.7253222933921742E-006
  0.24209999999999998         -1.7150458562772739E-006
  0.24295000000000000         -1.7104605558782253E-006
  0.24379999999999996         -1.7115568936200337E-006
  0.24464999999999998         -1.7184031360089640E-006
  0.24550000000000000         -1.7312076584149228E-006
  0.24634999999999996         -1.7503278084685226E-006
  0.24719999999999998         -1.7762187124287769E-006
  0.24804999999999999         -1.8093492710093499E-006
  0.24890000000000001         -1.8500718517638949E-006
  0.24974999999999997         -1.8984912004252270E-006
  0.25059999999999999         -1.9542883876647019E-006
  0.25145000000000001         -2.0166315069954916E-006
  0.25229999999999997         -2.0841897206300530E-006
  0.25314999999999999         -2.1551297556406991E-006
  0.25400000000000000         -2.2272697043420447E-006
  0.25484999999999997         -2.2982849375230814E-006
  0.25569999999999998         -2.3658718458696618E-006
  0.25655000000000000         -2.4279558635764491E-006
  0.25739999999999996         -2.4827904699419712E-006
  0.25824999999999998         -2.5290418750771789E-006
  0.25910000000000000         -2.5657545601652658E-006
  0.25994999999999996         -2.5922693132754616E-006
  0.26079999999999998         -2.6081149762157632E-006
  0.26164999999999999         -2.6129057532881695E-006
  0.26249999999999996         -2.6062313737436597E-006
  0.26334999999999997         -2.5876077834404186E-006
  0.26419999999999999         -2.5565485667492767E-006
  0.26505000000000001         -2.5126348808159068E-006
  0.26589999999999997         -2.4555683450819217E-006
  0.26674999999999999         -2.3853368178685398E-006
  0.26760000000000000         -2.3023022543817149E-006
  0.26844999999999997         -2.2072183851374966E-006
  0.26929999999999998         -2.1012680142108489E-006
  0.27015000000000000         -1.9859441798317095E-006
  0.27099999999999996         -1.8629814572159245E-006
  0.27184999999999998         -1.7342738092313230E-006
  0.27270000000000000         -1.6017697980656609E-006
  0.27354999999999996         -1.4673173283066417E-006
  0.27439999999999998         -1.3326940618969555E-006
  0.27524999999999999         -1.1995407493437192E-006
  0.27609999999999996         -1.0693681697277329E-006
  0.27694999999999997         -9.4353006975004753E-007
  0.27779999999999999         -8.2322849735379459E-007
  0.27865000000000001         -7.0948682510794588E-007
  0.27949999999999997         -6.0312009840220465E-007
  0.28034999999999999         -5.0471019953084937E-007
  0.28120000000000001         -4.1456756040923066E-007
  0.28204999999999997         -3.3273447100095636E-007
  0.28289999999999998         -2.5900519613718512E-007
  0.28375000000000000         -1.9299370931688010E-007
  0.28459999999999996         -1.3420976840138476E-007
  0.28544999999999998         -8.2143895256355726E-008
  0.28630000000000000         -3.6325143833834737E-008
  0.28714999999999996          3.5914790400142163E-009
  0.28799999999999998          3.7845038839651721E-008
  0.28885000000000000          6.6572463076129105E-008
  0.28969999999999996          8.9870111996184467E-008
  0.29054999999999997          1.0784430432067168E-007
  0.29139999999999999          1.2068397607909272E-007
  0.29224999999999995          1.2865676139871391E-007
  0.29309999999999997          1.3212809665479266E-007
  0.29394999999999999          1.3149993255787789E-007
  0.29480000000000001          1.2714106706939798E-007
  0.29564999999999997          1.1929695107851513E-007
  0.29649999999999999          1.0802121169898527E-007
  0.29735000000000000          9.3153720580341108E-008
  0.29819999999999997          7.4316686168695891E-008
  0.29904999999999998          5.0961079745485129E-008
  0.29990000000000000          2.2479070898635599E-008
  0.30074999999999996         -1.1717797319562493E-008
  0.30159999999999998         -5.2076478938271819E-008
  0.30245000000000000         -9.8852228360798830E-008
  0.30329999999999996         -1.5205579832183308E-007
  0.30414999999999998         -2.1148050686620971E-007
  0.30499999999999999         -2.7673206417799528E-007
  0.30584999999999996         -3.4728799903855766E-007
  0.30669999999999997         -4.2255115313799843E-007
  0.30754999999999999         -5.0189240290319227E-007
  0.30840000000000001         -5.8463210607598254E-007
  0.30924999999999997         -6.7002094914325616E-007
  0.31009999999999999         -7.5720336134559203E-007
  0.31095000000000000         -8.4513753205704794E-007
  0.31179999999999997         -9.3261388155135199E-007
  0.31264999999999998         -1.0182229858567125E-006
  0.31350000000000000         -1.1004233344167758E-006
  0.31434999999999996         -1.1776325452537107E-006
  0.31519999999999998         -1.2483323314741352E-006
  0.31605000000000000         -1.3111783395810016E-006
  0.31689999999999996         -1.3651008338956033E-006
  0.31774999999999998         -1.4093247727591862E-006
  0.31859999999999999         -1.4433826023706239E-006
  0.31944999999999996         -1.4670489263370657E-006
  0.32029999999999997         -1.4802532440044802E-006
  0.32114999999999999         -1.4829973402988513E-006
  0.32199999999999995         -1.4752879666971541E-006
  0.32284999999999997         -1.4570923321880677E-006
  0.32369999999999999         -1.4283810628566096E-006
  0.32455000000000001         -1.3891719580765948E-006
  0.32539999999999997         -1.3396339497712049E-006
  0.32624999999999998         -1.2801580350871143E-006
  0.32710000000000000         -1.2114462397310619E-006
  0.32794999999999996         -1.1345148273535981E-006
  0.32879999999999998         -1.0506662394497796E-006
  0.32965000000000000         -9.6139263401037296E-007
  0.33049999999999996         -8.6825377041782518E-007
  0.33134999999999998         -7.7276657148615012E-007
  0.33220000000000000         -6.7630044960674508E-007
  0.33304999999999996         -5.8000200338175777E-007
  0.33389999999999997         -4.8479492864753532E-007
  0.33474999999999999         -3.9140800951513930E-007
  0.33559999999999995         -3.0042993314641988E-007
  0.33644999999999997         -2.1238910390348337E-007
  0.33729999999999999         -1.2779370221725732E-007
  0.33815000000000001         -4.7149649149885834E-008
  0.33899999999999997          2.9060653649277220E-008
  0.33984999999999999          1.0042125267072805E-007
  0.34070000000000000          1.6664413702866941E-007
  0.34154999999999996          2.2761164236102801E-007
  0.34239999999999998          2.8339409445701321E-007