 -0.12000000000000000          0.0000000000000000
 -0.11914999999999999          0.0000000000000000
 -0.11830000000000000          0.0000000000000000
 -0.11745000000000000          0.0000000000000000
 -0.11660000000000000          0.0000000000000000
 -0.11574999999999999          0.0000000000000000
 -0.11490000000000000          0.0000000000000000
 -0.11405000000000000          0.0000000000000000
 -0.11320000000000000          0.0000000000000000
 -0.11234999999999999          7.7586351925888633E-036
 -0.11150000000000000          1.0891161844568275E-034
 -0.11065000000000000          7.6213137602218659E-034
 -0.10979999999999999          3.4843836512564196E-033
 -0.10894999999999999          1.1378540331096368E-032
 -0.10810000000000000          2.6696145232265512E-032
 -0.10725000000000000          3.9332073390091995E-032
 -0.10639999999999999          5.6191359216452876E-034
 -0.10554999999999999         -2.0909498148703046E-031
 -0.10470000000000000         -7.7004763437304162E-031
 -0.10385000000000000         -1.7691452749811449E-030
 -0.10299999999999999         -2.7803510552717683E-030
 -0.10214999999999999         -2.1877763847480110E-030
 -0.10130000000000000          3.3562969715222423E-030
 -0.10045000000000000          1.8320633799058023E-029
  -9.9599999999999994E-002     4.4995051577841923E-029
  -9.8750000000000004E-002     7.6343711793759954E-029
  -9.7900000000000001E-002     8.6168413181981509E-029
  -9.7049999999999997E-002     2.2541495971190245E-029
  -9.6199999999999994E-002    -1.8339379952022494E-028
  -9.5349999999999990E-002    -5.7771360752159937E-028
  -9.4500000000000001E-002    -1.1036959657251235E-027
  -9.3649999999999997E-002    -1.4950452606835410E-027
  -9.2799999999999994E-002    -1.1974804955303287E-027
  -9.1950000000000004E-002     5.7735427756035323E-028
  -9.1100000000000000E-002     4.5357981170740040E-027
  -9.0249999999999997E-002     1.0637700143632570E-026
  -8.9399999999999993E-002     1.7156135394504696E-026
  -8.8549999999999990E-002     1.9818799456478624E-026
  -8.7700000000000000E-002     1.1733771044331269E-026
  -8.6849999999999997E-002    -1.4964716510479389E-026
  -8.5999999999999993E-002    -6.4961366057677807E-026
  -8.5150000000000003E-002    -1.3311006299227590E-025
  -8.4300000000000000E-002    -1.9688852756491231E-025
  -8.3449999999999996E-002    -2.1168661567088452E-025
  -8.2600000000000007E-002    -1.1456310325823193E-025
  -8.1749999999999989E-002     1.5751769480629312E-025
  -8.0900000000000000E-002     6.3164741106976143E-025
  -8.0049999999999996E-002     1.2486935016444655E-024
  -7.9199999999999993E-002     1.8131844798139196E-024
  -7.8350000000000003E-002     1.9701031291160662E-024
  -7.7499999999999999E-002     1.2439912656198973E-024
  -7.6649999999999996E-002    -8.2644070893347428E-025
  -7.5800000000000006E-002    -4.4453385477583005E-024
  -7.4949999999999989E-002    -9.2376738783022621E-024
  -7.4099999999999999E-002    -1.3937753377576815E-023
  -7.3249999999999996E-002    -1.6241447496697161E-023
  -7.2399999999999992E-002    -1.3016040276746700E-023
  -7.1550000000000002E-002    -1.0455146740808612E-024
  -7.0699999999999999E-002     2.1615154522940730E-023
  -6.9849999999999995E-002     5.3810499601304057E-023
  -6.9000000000000006E-002     8.9405586774251864E-023
  -6.8149999999999988E-002     1.1609602627035074E-022
  -6.7299999999999999E-002     1.1586791152827240E-022
  -6.6449999999999995E-002     6.8058350621816457E-023
  -6.5599999999999992E-002    -4.4413407357164552E-023
  -6.4750000000000002E-002    -2.2590643779593179E-022
  -6.3899999999999998E-002    -4.5751722993588693E-022
  -6.3049999999999995E-002    -6.8809789306283939E-022
  -6.2199999999999998E-002    -8.3106334152294125E-022
  -6.1350000000000002E-002    -7.7176392576691856E-022
  -6.0499999999999998E-002    -3.8943378996776254E-022
  -5.9650000000000002E-002     4.0481792078094435E-022
  -5.8799999999999998E-002     1.6169739577818525E-021
  -5.7950000000000002E-002     3.1150290375345520E-021
  -5.7099999999999998E-002     4.5853236790915810E-021
  -5.6249999999999994E-002     5.5209437809301072E-021
  -5.5400000000000005E-002     5.2645224948330596E-021
  -5.4550000000000001E-002     3.1236154587820644E-021
  -5.3699999999999998E-002    -1.4349627874234329E-021
  -5.2849999999999994E-002    -8.5254103202238591E-021
  -5.2000000000000005E-002    -1.7557974588383143E-020
  -5.1150000000000001E-002    -2.6998038529280018E-020
  -5.0299999999999997E-002    -3.4263392453081176E-020
  -4.9449999999999994E-002    -3.5865316163461929E-020
  -4.8600000000000004E-002    -2.7887434857207724E-020
  -4.7750000000000001E-002    -6.8527542079779868E-021
  -4.6899999999999997E-002     2.9050450408347555E-020
  -4.6049999999999994E-002     7.8525822082771764E-020
  -4.5200000000000004E-002     1.3578412838524470E-019
  -4.4350000000000001E-002     1.8961832922636256E-019
  -4.3499999999999997E-002     2.2342680780784711E-019
  -4.2649999999999993E-002     2.1667488552208012E-019
  -4.1800000000000004E-002     1.4816026881942021E-019
  -4.0950000000000000E-002     1.1677762191539292E-021
  -4.0099999999999997E-002    -2.2984112339726110E-019
  -3.9249999999999993E-002    -5.3192594019996012E-019
  -3.8400000000000004E-002    -8.6727944275020937E-019
  -3.7550000000000000E-002    -1.1698003162984986E-018
  -3.6699999999999997E-002    -1.3469266952627034E-018
  -3.5850000000000007E-002    -1.2888400315580887E-018
  -3.5000000000000003E-002    -8.8635444715306013E-019
  -3.4150000000000000E-002    -5.7332632942172183E-020
  -3.3299999999999996E-002     1.2206352747801334E-018
  -3.2450000000000007E-002     2.8760534152742133E-018
  -3.1600000000000003E-002     4.7151013096777136E-018
  -3.0750000000000000E-002     6.4081052489395375E-018
  -2.9899999999999996E-002     7.5006223787456930E-018
  -2.9050000000000006E-002     7.4574776577213118E-018
  -2.8200000000000003E-002     5.7442806326860613E-018
  -2.7349999999999999E-002     1.9445544585247492E-018
  -2.6499999999999996E-002    -4.0979328146635256E-018
  -2.5650000000000006E-002    -1.2131689844013474E-017
  -2.4800000000000003E-002    -2.1374075344892705E-017
  -2.3949999999999999E-002    -3.0447515953642403E-017
  -2.3099999999999996E-002    -3.7412386968180129E-017
  -2.2250000000000006E-002    -3.9927817528432902E-017
  -2.1400000000000002E-002    -3.5557469721344103E-017
  -2.0549999999999999E-002    -2.2214564546621428E-017
  -1.9699999999999995E-002     1.2892387982745341E-018
  -1.8850000000000006E-002     3.4659511988194096E-017
  -1.8000000000000002E-002     7.5598939009847668E-017
  -1.7149999999999999E-002     1.1947328097773600E-016
  -1.6299999999999995E-002     1.5929237026916586E-016
  -1.5450000000000005E-002     1.8612000137349110E-016
  -1.4600000000000002E-002     1.8998547777319928E-016
  -1.3749999999999998E-002     1.6130246689524967E-016
  -1.2899999999999995E-002     9.2711496829090473E-017
  -1.2050000000000005E-002    -1.8839873349431716E-017
  -1.1200000000000002E-002    -1.7006485491744650E-016
  -1.0349999999999998E-002    -3.4972023512105692E-016
  -9.5000000000000084E-003    -5.3781104989982991E-016
  -8.6500000000000049E-003    -7.0600844938767935E-016
  -7.8000000000000014E-003    -8.1958436203908159E-016
  -6.9499999999999978E-003    -8.4100357701153408E-016
  -6.1000000000000082E-003    -7.3508399201441053E-016
  -5.2500000000000047E-003    -4.7535270051712833E-016
  -4.4000000000000011E-003    -5.0933573128588300E-017
  -3.5499999999999976E-003     5.2696998530708034E-016
  -2.7000000000000079E-003     1.2201182274583579E-015
  -1.8500000000000044E-003     1.9609910148545543E-015
  -1.0000000000000009E-003     2.6543340478025652E-015
  -1.4999999999999736E-004     3.1832742635828380E-015
   6.9999999999999230E-004     3.4202859505320229E-015
   1.5499999999999958E-003     3.2426501887442895E-015
   2.3999999999999994E-003     2.5512850981604704E-015
   3.2500000000000029E-003     1.2910812323411501E-015
   4.0999999999999925E-003    -5.2977364039503163E-016
   4.9499999999999961E-003    -2.8244268390364386E-015
   5.7999999999999996E-003    -5.4189833168901010E-015
   6.6499999999999893E-003    -8.0538382913205952E-015
   7.5000000000000067E-003    -1.0396677017589044E-014
   8.3499999999999963E-003    -1.2067936060729917E-014
   9.1999999999999860E-003    -1.2678000550406643E-014
   1.0050000000000003E-002    -1.1873771175817603E-014
   1.0899999999999993E-002    -9.3905576763054699E-015
   1.1750000000000010E-002    -5.1038979584141312E-015
   1.2600000000000000E-002     9.2502749036471448E-016
   1.3449999999999990E-002     8.4169949984963872E-015
   1.4300000000000007E-002     1.6861396187627469E-014
   1.5149999999999997E-002     2.5526734096254221E-014
   1.5999999999999986E-002     3.3497636253935631E-014
   1.6850000000000004E-002     3.9738508701519425E-014
   1.7699999999999994E-002     4.3180999208338861E-014
   1.8549999999999983E-002     4.2829620555238699E-014
   1.9400000000000001E-002     3.7877217434461661E-014
   2.0249999999999990E-002     2.7820183068856387E-014
   2.1100000000000008E-002     1.2562164495046999E-014
   2.1949999999999997E-002    -7.5049113839344363E-015
   2.2799999999999987E-002    -3.1452766324912011E-014
   2.3650000000000004E-002    -5.7809823107081692E-014
   2.4499999999999994E-002    -8.4600920580534099E-014
   2.5349999999999984E-002    -1.0943565350864209E-013
   2.6200000000000001E-002    -1.2964422088270947E-013
   2.7049999999999991E-002    -1.4245543667773731E-013
   2.7900000000000008E-002    -1.4520867152009618E-013
   2.8749999999999998E-002    -1.3558861595993160E-013
   2.9599999999999987E-002    -1.1186873552690283E-013
   3.0450000000000005E-002    -7.3148507884535388E-014
   3.1299999999999994E-002    -1.9567236210118799E-014
   3.2149999999999984E-002     4.7522495544438634E-014
   3.3000000000000002E-002     1.2543908021151820E-013
   3.3849999999999991E-002     2.1013031045696823E-013
   3.4700000000000009E-002     2.9622083879724579E-013
   3.5549999999999998E-002     3.7716057977056916E-013
   3.6399999999999988E-002     4.4548319084979058E-013
   3.7250000000000005E-002     4.9317707017644171E-013
   3.8099999999999995E-002     5.1216652185653418E-013
   3.8949999999999985E-002     4.9489064736786130E-013
   3.9800000000000002E-002     4.3496017550317703E-013
   4.0649999999999992E-002     3.2786034027741115E-013
   4.1500000000000009E-002     1.7165966732890412E-013
   4.2349999999999999E-002    -3.2326376136658649E-014
   4.3199999999999988E-002    -2.7897633784489417E-013
   4.4050000000000006E-002    -5.5896723201803943E-013
   4.4899999999999995E-002    -8.5860966902626967E-013
   4.5749999999999985E-002    -1.1599673602959216E-012
   4.6600000000000003E-002    -1.4413094264950479E-012
   4.7449999999999992E-002    -1.6779248470820058E-012
   4.8299999999999982E-002    -1.8433049076623477E-012
   4.9149999999999999E-002    -1.9106747444126937E-012
   4.9999999999999989E-002    -1.8548257890152940E-012
   5.0850000000000006E-002    -1.6541685066636539E-012
   5.1699999999999996E-002    -1.2928973095789736E-012
   5.2549999999999986E-002    -7.6314178489004053E-013
   5.3400000000000003E-002    -6.6947698510075675E-014
   5.4249999999999993E-002     7.8206047726291359E-013
   5.5099999999999982E-002     1.7574980144704367E-012
   5.5950000000000000E-002     2.8196632745678789E-012
   5.6799999999999989E-002     3.9157305393975150E-012
   5.7650000000000007E-002     4.9807882527475341E-012
   5.8499999999999996E-002     5.9397837071056936E-012
   5.9349999999999986E-002     6.7103871507110240E-012
   6.0200000000000004E-002     7.2067422240683920E-012
   6.1049999999999993E-002     7.3440206946742154E-012
   6.1899999999999983E-002     7.0436369288973228E-012
   6.2750000000000000E-002     6.2389340215912035E-012
   6.3599999999999990E-002     4.8811029853351229E-012
   6.4450000000000007E-002     2.9450256312027151E-012
   6.5299999999999997E-002     4.3472963753775556E-013
   6.6149999999999987E-002    -2.6119168996242636E-012
   6.7000000000000004E-002    -6.1196699192032563E-012
   6.7849999999999994E-002    -9.9738712718929320E-012
   6.8699999999999983E-002    -1.4020301461381424E-011
   6.9550000000000001E-002    -1.8067224732267430E-011
   7.0399999999999990E-002    -2.1889847376462353E-011
   7.1249999999999980E-002    -2.5237329651112244E-011
   7.2099999999999997E-002    -2.7842379356449831E-011
   7.2949999999999987E-002    -2.9433277078827657E-011
   7.3800000000000004E-002    -2.9748048615587655E-011
   7.4649999999999994E-002    -2.8550362681233117E-011
   7.5499999999999984E-002    -2.5646530302038506E-011
   7.6350000000000001E-002    -2.0902904671752793E-011
   7.7199999999999991E-002    -1.4262821966729075E-011
   7.8049999999999981E-002    -5.7622441658008625E-012
   7.8899999999999998E-002     4.4569354054962613E-012
   7.9749999999999988E-002     1.6136721898726164E-011
   8.0600000000000005E-002     2.8896910489465624E-011
   8.1449999999999995E-002     4.2233719586568223E-011
   8.2299999999999984E-002     5.5523786922572148E-011
   8.3150000000000002E-002     6.8033892224212108E-011
   8.3999999999999991E-002     7.8936635738636605E-011
   8.4849999999999981E-002     8.7331989026223230E-011
   8.5699999999999998E-002     9.2274462033733575E-011
   8.6549999999999988E-002     9.2805528190210858E-011
   8.7400000000000005E-002     8.7990384384163498E-011
   8.8249999999999995E-002     7.6958446301643811E-011
   8.9099999999999985E-002     5.8946435363857498E-011
   8.9950000000000002E-002     3.3343021148190328E-011
   9.0799999999999992E-002    -2.6627390833492758E-013
   9.1649999999999981E-002    -4.2054630415712655E-011
   9.2499999999999999E-002    -9.1911751286811518E-011
   9.3349999999999989E-002    -1.4940433173617898E-010
   9.4200000000000006E-002    -2.1374030011355243E-010
   9.5049999999999996E-002    -2.8373749397645292E-010
   9.5899999999999985E-002    -3.5779698027598202E-010
   9.6750000000000003E-002    -4.3388156990286441E-010
   9.7599999999999992E-002    -5.0949843324591461E-010
   9.8449999999999982E-002    -5.8168594368952600E-010
   9.9299999999999999E-002    -6.4700271880210708E-010
  0.10014999999999999         -7.0151844319494536E-010
  0.10099999999999998         -7.4080179152602847E-010
  0.10185000000000000         -7.5990592259148772E-010
  0.10269999999999999         -7.5334493077479686E-010
  0.10355000000000000         -7.1505881819507590E-010
  0.10439999999999999         -6.3836327130339536E-010
  0.10524999999999998         -5.1587515242664939E-010
  0.10610000000000000         -3.3941124527538769E-010
  0.10694999999999999         -9.9855429038628788E-011
  0.10779999999999998          2.1302073849937209E-010
  0.10865000000000000          6.1077949715675698E-010
  0.10949999999999999          1.1066002919959365E-009
  0.11035000000000000          1.7156241121764100E-009
  0.11119999999999999          2.4553668280031497E-009
  0.11204999999999998          3.3462275017797183E-009
  0.11290000000000000          4.4120593521242800E-009
  0.11374999999999999          5.6808769569368667E-009
  0.11459999999999998          7.1856362530122937E-009
  0.11545000000000000          8.9651488775376531E-009
  0.11629999999999999          1.1065125740145137E-008
  0.11715000000000000          1.3539335249813031E-008
  0.11799999999999999          1.6450928240566509E-008
  0.11884999999999998          1.9873921663439080E-008
  0.11970000000000000          2.3894828576611708E-008
  0.12054999999999999          2.8614495920308649E-008
  0.12139999999999998          3.4150113931797464E-008
  0.12225000000000000          4.0637430413106968E-008
  0.12309999999999999          4.8233231307558719E-008
  0.12395000000000000          5.7117964963340409E-008
  0.12479999999999999          6.7498736486328344E-008
  0.12564999999999998          7.9612551927892908E-008
  0.12650000000000000          9.3729786036298006E-008
  0.12734999999999999          1.1015799916577438E-007
  0.12819999999999998          1.2924615498729551E-007
  0.12905000000000000          1.5138904819291818E-007
  0.12989999999999999          1.7703224406107659E-007
  0.13074999999999998          2.0667717477581737E-007
  0.13159999999999999          2.4088706839243279E-007
  0.13245000000000001          2.8029252429581543E-007
  0.13329999999999997          3.2559794817876776E-007
  0.13414999999999999          3.7758868945723129E-007
  0.13500000000000001          4.3713744503530444E-007
  0.13584999999999997          5.0521241538314739E-007
  0.13669999999999999          5.8288422557609338E-007
  0.13755000000000001          6.7133410079123112E-007
  0.13839999999999997          7.7186137739622544E-007
  0.13924999999999998          8.8589270603281021E-007
  0.14010000000000000          1.0149870438527027E-006
  0.14094999999999996          1.1608471404116591E-006
  0.14179999999999998          1.3253235915462890E-006
  0.14265000000000000          1.5104233966815546E-006
  0.14350000000000002          1.7183152980479505E-006
  0.14434999999999998          1.9513346298408678E-006
  0.14520000000000000          2.2119885255990716E-006
  0.14605000000000001          2.5029582269616516E-006
  0.14689999999999998          2.8270971309688778E-006
  0.14774999999999999          3.1874335576845359E-006
  0.14860000000000001          3.5871661410387747E-006
  0.14944999999999997          4.0296583225489747E-006
  0.15029999999999999          4.5184289092558391E-006
  0.15115000000000001          5.0571410699088944E-006
  0.15199999999999997          5.6495854613611424E-006
  0.15284999999999999          6.2996654693310154E-006
  0.15370000000000000          7.0113702180204259E-006
  0.15454999999999997          7.7887439677274814E-006
  0.15539999999999998          8.6358644118573341E-006
  0.15625000000000000          9.5567925384093621E-006
  0.15709999999999996          1.0555545185785407E-005
  0.15794999999999998          1.1636028765130111E-005
  0.15880000000000000          1.2802012013161360E-005
  0.15965000000000001          1.4057041882756865E-005
  0.16049999999999998          1.5404394492684366E-005
  0.16134999999999999          1.6846996384174523E-005
  0.16220000000000001          1.8387350981617703E-005
  0.16304999999999997          2.0027486964729804E-005
  0.16389999999999999          2.1768832265923126E-005
  0.16475000000000001          2.3612152973119395E-005
  0.16559999999999997          2.5557459454895489E-005
  0.16644999999999999          2.7603933220977772E-005
  0.16730000000000000          2.9749768843737823E-005
  0.16814999999999997          3.1992152577924810E-005
  0.16899999999999998          3.4327119461692639E-005
  0.16985000000000000          3.6749483567434139E-005
  0.17069999999999996          3.9252753008344917E-005
  0.17154999999999998          4.1829023711675644E-005
  0.17240000000000000          4.4468932781211072E-005
  0.17325000000000002          4.7161556086435137E-005
  0.17409999999999998          4.9894368419438369E-005
  0.17494999999999999          5.2653173845555802E-005
  0.17580000000000001          5.5422123879586438E-005
  0.17664999999999997          5.8183654191351503E-005
  0.17749999999999999          6.0918468845106525E-005
  0.17835000000000001          6.3605599342316524E-005
  0.17919999999999997          6.6222394707517353E-005
  0.18004999999999999          6.8744658311542233E-005
  0.18090000000000001          7.1146657349961193E-005
  0.18174999999999997          7.3401272122396974E-005
  0.18259999999999998          7.5480018975644436E-005
  0.18345000000000000          7.7353339491118678E-005
  0.18429999999999996          7.8990785793631960E-005
  0.18514999999999998          8.0361141022686650E-005
  0.18600000000000000          8.1432821978524853E-005
  0.18684999999999996          8.2173822129447054E-005
  0.18769999999999998          8.2552347635516976E-005
  0.18855000000000000          8.2536998511948455E-005
  0.18940000000000001          8.2096938215178272E-005
  0.19024999999999997          8.1202490286834419E-005
  0.19109999999999999          7.9825323049929027E-005
  0.19195000000000001          7.7938844345817288E-005
  0.19279999999999997          7.5518692933113359E-005
  0.19364999999999999          7.2542965461726757E-005
  0.19450000000000001          6.8992835706916707E-005
  0.19534999999999997          6.4852702119417831E-005
  0.19619999999999999          6.0110566925433613E-005
  0.19705000000000000          5.4758656180520611E-005
  0.19789999999999996          4.8793319758852966E-005
  0.19874999999999998          4.2215640637978289E-005
  0.19960000000000000          3.5031791855989353E-005
  0.20044999999999996          2.7252934930496454E-005
  0.20129999999999998          1.8895674913936808E-005
  0.20215000000000000          9.9821338558570392E-006
  0.20300000000000001          5.4003993173230321E-007
  0.20384999999999998         -9.3973076791232240E-006
  0.20469999999999999         -1.9790754183022140E-005
  0.20555000000000001         -3.0595697553934957E-005
  0.20639999999999997         -4.1762080696468724E-005
  0.20724999999999999         -5.3234615476998962E-005
  0.20810000000000001         -6.4952917426224898E-005
  0.20894999999999997         -7.6852182863122270E-005
  0.20979999999999999         -8.8863304012394204E-005
  0.21065000000000000         -1.0091350278406002E-004
  0.21149999999999997         -1.1292648002202955E-004
  0.21234999999999998         -1.2482358472496678E-004
  0.21320000000000000         -1.3652401043260699E-004
  0.21404999999999996         -1.4794564258525047E-004
  0.21489999999999998         -1.5900552903999756E-004
  0.21575000000000000         -1.6962090286476648E-004
  0.21659999999999996         -1.7970997434341030E-004
  0.21744999999999998         -1.8919230195307122E-004
  0.21829999999999999         -1.9799001052922248E-004
  0.21915000000000001         -2.0602845041968313E-004
  0.21999999999999997         -2.1323686452797883E-004
  0.22084999999999999         -2.1954918929685026E-004
  0.22170000000000001         -2.2490480154847896E-004
  0.22254999999999997         -2.2924926189945281E-004
  0.22339999999999999         -2.3253480304096920E-004
  0.22425000000000000         -2.3472102264664082E-004
  0.22509999999999997         -2.3577535518845238E-004
  0.22594999999999998         -2.3567343455749678E-004
  0.22680000000000000         -2.3439960859410566E-004
  0.22764999999999996         -2.3194703144211712E-004
  0.22849999999999998         -2.2831787285655010E-004
  0.22935000000000000         -2.2352359100347125E-004
  0.23019999999999996         -2.1758467449656854E-004
  0.23104999999999998         -2.1053063700528536E-004
  0.23190000000000000         -2.0239990630337756E-004
  0.23275000000000001         -1.9323944217757152E-004
  0.23359999999999997         -1.8310427109718337E-004
  0.23444999999999999         -1.7205712064536095E-004
  0.23530000000000001         -1.6016799834216622E-004
  0.23614999999999997         -1.4751337794879834E-004
  0.23699999999999999         -1.3417550524012407E-004
  0.23785000000000001         -1.2024170773854885E-004
  0.23869999999999997         -1.0580364563151939E-004
  0.23954999999999999         -9.0956111188653934E-005
  0.24040000000000000         -7.5796630891656941E-005
  0.24124999999999996         -6.0424232038659266E-005
  0.24209999999999998         -4.4938447768853397E-005
  0.24295000000000000         -2.9439127013625377E-005
  0.24379999999999996         -1.4024274247729664E-005
  0.24464999999999998          1.2093900106030398E-006
  0.24550000000000000          1.6168815577380816E-005
  0.24634999999999996          3.0763861259008085E-005
  0.24719999999999998          4.4909391050147443E-005
  0.24804999999999999          5.8524871518257658E-005
  0.24890000000000001          7.1536105785057405E-005
  0.24974999999999997          8.3874723216756478E-005
  0.25059999999999999          9.5479287110652078E-005
  0.25145000000000001          1.0629565323297972E-004
  0.25229999999999997          1.1627700791590304E-004
  0.25314999999999999          1.2538474201013604E-004
  0.25400000000000000          1.3358731677014682E-004
  0.25484999999999997          1.4086182803586627E-004
  0.25569999999999998          1.4719306395284383E-004
  0.25655000000000000          1.5257360801177911E-004
  0.25739999999999996          1.5700376063977064E-004
  0.25824999999999998          1.6049091529193608E-004
  0.25910000000000000          1.6304960265331103E-004
  0.25994999999999996          1.6470104360965488E-004
  0.26079999999999998          1.6547249825591795E-004
  0.26164999999999999          1.6539684898328794E-004
  0.26249999999999996          1.6451219676126154E-004
  0.26334999999999997          1.6286127385846904E-004
  0.26419999999999999          1.6049052049304946E-004
  0.26505000000000001          1.5745003687306887E-004
  0.26589999999999997          1.5379249696246972E-004
  0.26674999999999999          1.4957274576349636E-004
  0.26760000000000000          1.4484708263766489E-004
  0.26844999999999997          1.3967287869835093E-004
  0.26929999999999998          1.3410766838456369E-004
  0.27015000000000000          1.2820890087932157E-004
  0.27099999999999996          1.2203324192437343E-004
  0.27184999999999998          1.1563614775043385E-004
  0.27270000000000000          1.0907145519850683E-004
  0.27354999999999996          1.0239096348620641E-004
  0.27439999999999998          9.5643990491222996E-005
  0.27524999999999999          8.8877257600146193E-005
  0.27609999999999996          8.2134502003984656E-005
  0.27694999999999997          7.5456327200477288E-005
  0.27779999999999999          6.8880024388580827E-005
  0.27865000000000001          6.2439473213691176E-005
  0.27949999999999997          5.6165070202768391E-005
  0.28034999999999999          5.0083701508397678E-005
  0.28120000000000001          4.4218761216883116E-005
  0.28204999999999997          3.8590129462754856E-005
  0.28289999999999998          3.3214415402020857E-005
  0.28375000000000000          2.8104912524508072E-005
  0.28459999999999996          2.3271774313123942E-005
  0.28544999999999998          1.8722263707867745E-005
  0.28630000000000000          1.4460857679031419E-005
  0.28714999999999996          1.0489398074685402E-005
  0.28799999999999998          6.8074771291101642E-006
  0.28885000000000000          3.4125124497990973E-006
  0.28969999999999996          2.9998266884830763E-007
  0.29054999999999997         -2.5363079121051262E-006
  0.29139999999999999         -5.1041257092907355E-006
  0.29224999999999995         -7.4124408424412933E-006
  0.29309999999999997         -9.4712771747639753E-006
  0.29394999999999999         -1.1291614664407520E-005
  0.29480000000000001         -1.2885141735135812E-005
  0.29564999999999997         -1.4264035326716447E-005
  0.29649999999999999         -1.5440871657563844E-005
  0.29735000000000000         -1.6428396674945569E-005
  0.29819999999999997         -1.7239426527689126E-005
  0.29904999999999998         -1.7886801834428530E-005
  0.29990000000000000         -1.8383194911949726E-005
  0.30074999999999996         -1.8741013269892583E-005
  0.30159999999999998         -1.8972355469882148E-005
  0.30245000000000000         -1.9088983371857398E-005
  0.30329999999999996         -1.9102168541484816E-005
  0.30414999999999998         -1.9022758260213694E-005
  0.30499999999999999         -1.8861072135763388E-005
  0.30584999999999996         -1.8626899530983372E-005
  0.30669999999999997         -1.8329473696911076E-005
  0.30754999999999999         -1.7977472995794276E-005
  0.30840000000000001         -1.7579046740000558E-005
  0.30924999999999997         -1.7141773087890153E-005
  0.31009999999999999         -1.6672624483432473E-005
  0.31095000000000000         -1.6178074895060365E-005
  0.31179999999999997         -1.5664053774820318E-005
  0.31264999999999998         -1.5135946726173285E-005
  0.31350000000000000         -1.4598660080041451E-005
  0.31434999999999996         -1.4056578441380019E-005
  0.31519999999999998         -1.3513624352782803E-005
  0.31605000000000000         -1.2973290700749930E-005
  0.31689999999999996         -1.2438634727811387E-005
  0.31774999999999998         -1.1912315978084860E-005
  0.31859999999999999         -1.1396593594836798E-005
  0.31944999999999996         -1.0893416415934804E-005
  0.32029999999999997         -1.0404395413966432E-005
  0.32114999999999999         -9.9308186085833901E-006
  0.32199999999999995         -9.4737214482558102E-006
  0.32284999999999997         -9.0338563479982853E-006
  0.32369999999999999         -8.6117553671339505E-006
  0.32455000000000001         -8.2077125131210149E-006
  0.32539999999999997         -7.8218194248773817E-006
  0.32624999999999998         -7.4539504320140149E-006
  0.32710000000000000         -7.1038679975979126E-006
  0.32794999999999996         -6.7711588681135320E-006
  0.32879999999999998         -6.4553096430046919E-006
  0.32965000000000000         -6.1557184325794359E-006
  0.33049999999999996         -5.8717104158299773E-006
  0.33134999999999998         -5.6025740115664543E-006
  0.33220000000000000         -5.3475741057548298E-006
  0.33304999999999996         -5.1059815866315188E-006
  0.33389999999999997         -4.8770347322368773E-006
  0.33474999999999999         -4.6600024870183151E-006
  0.33559999999999995         -4.4541497342850296E-006
  0.33644999999999997         -4.2587385017559644E-006
  0.33729999999999999         -4.0730506005977770E-006
  0.33815000000000001         -3.8963713443105442E-006
  0.33899999999999997         -3.7280093945450675E-006
  0.33984999999999999         -3.5672812776267716E-006
  0.34070000000000000         -3.4135400293705480E-006
  0.34154999999999996         -3.2661595159209090E-006
  0.34239999999999998         -3.1245452507132330E-006
  0.34325000000000000         -2.9881432946370433E-006