 -0.12000000000000000          0.0000000000000000
 -0.11914999999999999          0.0000000000000000
 -0.11830000000000000          0.0000000000000000
 -0.11745000000000000          0.0000000000000000
 -0.11660000000000000          0.0000000000000000
 -0.11574999999999999          0.0000000000000000
 -0.11490000000000000          4.7431703741378695E-027
 -0.11405000000000000          4.4346227208470865E-026
 -0.11320000000000000          2.0410197035270410E-025
 -0.11234999999999999          5.8877172274180757E-025
 -0.11150000000000000          1.0734684974498622E-024
 -0.11065000000000000          7.7871020853364414E-025
 -0.10979999999999999         -2.3594707959296136E-024
 -0.10894999999999999         -1.0839848710977172E-023
 -0.10810000000000000         -2.4216392998191603E-023
 -0.10725000000000000         -3.2758014251633353E-023
 -0.10639999999999999         -1.1311284348790061E-023
 -0.10554999999999999          7.8347902046125080E-023
 -0.10470000000000000          2.6521770258793525E-022
 -0.10385000000000000          5.2018105174429821E-022
 -0.10299999999999999          6.9195809044779775E-022
 -0.10214999999999999          4.6953551929404415E-022
 -0.10130000000000000         -5.5824223439358408E-022
 -0.10045000000000000         -2.6736512283000417E-021
  -9.9599999999999994E-002    -5.6158881256440392E-021
  -9.8750000000000004E-002    -8.0959494097124149E-021
  -9.7900000000000001E-002    -7.5333784245780647E-021
  -9.7049999999999997E-002    -4.5191085305646756E-022
  -9.6199999999999994E-002     1.6051008380185574E-020
  -9.5349999999999990E-002     4.1668682490809976E-020
  -9.4500000000000001E-002     6.9667310723453535E-020
  -9.3649999999999997E-002     8.4572986050054590E-020
  -9.2799999999999994E-002     6.3019539326118767E-020
  -9.1950000000000004E-002    -1.9909159788337122E-020
  -9.1100000000000000E-002    -1.7770519418424137E-019
  -9.0249999999999997E-002    -3.9445661003147062E-019
  -8.9399999999999993E-002    -6.0748300442988757E-019
  -8.8549999999999990E-002    -7.0022518757297760E-019
  -8.7700000000000000E-002    -5.1703556541732751E-019
  -8.6849999999999997E-002     9.0841627960378144E-020
  -8.5999999999999993E-002     1.1872937312187227E-018
  -8.5150000000000003E-002     2.6551107267418102E-018
  -8.4300000000000000E-002     4.1130247462256012E-018
  -8.3449999999999996E-002     4.8925364595336002E-018
  -8.2600000000000007E-002     4.1250205829050310E-018
  -8.1749999999999989E-002     9.7441927715047714E-019
  -8.0900000000000000E-002    -4.9882393008874178E-018
  -8.0049999999999996E-002    -1.3332556098897072E-017
  -7.9199999999999993E-002    -2.2371881744733661E-017
  -7.8350000000000003E-002    -2.9010746461739428E-017
  -7.7499999999999999E-002    -2.9039443102292924E-017
  -7.6649999999999996E-002    -1.8024445704571878E-017
  -7.5800000000000006E-002     7.1936407954509357E-018
  -7.4949999999999989E-002     4.6593526390615396E-017
  -7.4099999999999999E-002     9.5103985669270065E-017
  -7.3249999999999996E-002     1.4143277783272206E-016
  -7.2399999999999992E-002     1.6835227306518257E-016
  -7.1550000000000002E-002     1.5509629008136974E-016
  -7.0699999999999999E-002     8.2161899399781465E-017
  -6.9849999999999995E-002    -6.1802527773381006E-017
  -6.9000000000000006E-002    -2.7212717280262939E-016
  -6.8149999999999988E-002    -5.2116555615738769E-016
  -6.7299999999999999E-002    -7.5472644183252210E-016
  -6.6449999999999995E-002    -8.9447671878952813E-016
  -6.5599999999999992E-002    -8.4833864464862473E-016
  -6.4750000000000002E-002    -5.2957941371747342E-016
  -6.3899999999999998E-002     1.1673858694829342E-016
  -6.3049999999999995E-002     1.0837270431787431E-015
  -6.2199999999999998E-002     2.2752727271050681E-015
  -6.1350000000000002E-002     3.4892732675705887E-015
  -6.0499999999999998E-002     4.4200382894009014E-015
  -5.9650000000000002E-002     4.6871239419780265E-015
  -5.8799999999999998E-002     3.8944812489262932E-015
  -5.7950000000000002E-002     1.7183472208279368E-015
  -5.7099999999999998E-002    -1.9846910505068551E-015
  -5.6249999999999994E-002    -7.0656364465541089E-015
  -5.5400000000000005E-002    -1.2990071367195967E-014
  -5.4550000000000001E-002    -1.8791703376570349E-014
  -5.3699999999999998E-002    -2.3100356245856279E-014
  -5.2849999999999994E-002    -2.4267256120718762E-014
  -5.2000000000000005E-002    -2.0599073392316903E-014
  -5.1150000000000001E-002    -1.0694338769338022E-014
  -5.0299999999999997E-002     6.1465681311995312E-015
  -4.9449999999999994E-002     2.9491983097296878E-014
  -4.8600000000000004E-002     5.7407562172465822E-014
  -4.7750000000000001E-002     8.6237114223594529E-014
  -4.6899999999999997E-002     1.1063441314887803E-013
  -4.6049999999999994E-002     1.2393204847893171E-013
  -4.5200000000000004E-002     1.1889922681960952E-013
  -4.4350000000000001E-002     8.8885703525872259E-014
  -4.3499999999999997E-002     2.9275385570795865E-014
  -4.2649999999999993E-002    -6.0910281337118013E-014
  -4.1800000000000004E-002    -1.7750000598806294E-013
  -4.0950000000000000E-002    -3.1005381243815730E-013
  -4.0099999999999997E-002    -4.4146729875943587E-013
  -3.9249999999999993E-002    -5.4860104655793527E-013
  -3.8400000000000004E-002    -6.0415083506851499E-013
  -3.7550000000000000E-002    -5.7982150335871417E-013
  -3.6699999999999997E-002    -4.5066068979010861E-013
  -3.5850000000000007E-002    -2.0017827043193755E-013
  -3.5000000000000003E-002     1.7436645255782558E-013
  -3.4150000000000000E-002     6.5730178446926300E-013
  -3.3299999999999996E-002     1.2114129833655690E-012
  -3.2450000000000007E-002     1.7772212154731600E-012
  -3.1600000000000003E-002     2.2753865904945636E-012
  -3.0750000000000000E-002     2.6126357405089119E-012
  -2.9899999999999996E-002     2.6911805231097204E-012
  -2.9050000000000006E-002     2.4210735009413234E-012
  -2.8200000000000003E-002     1.7344280704481410E-012
  -2.7349999999999999E-002     5.9995913213351119E-013
  -2.6499999999999996E-002    -9.6400261719119796E-013
  -2.5650000000000006E-002    -2.8800026295109912E-012
  -2.4800000000000003E-002    -5.0072924669515189E-012
  -2.3949999999999999E-002    -7.1444571389325819E-012
  -2.3099999999999996E-002    -9.0396830513112960E-012
  -2.2250000000000006E-002    -1.0408748831787332E-011
  -2.1400000000000002E-002    -1.0959933145829112E-011
  -2.0549999999999999E-002    -1.0424208100450428E-011
  -1.9699999999999995E-002    -8.5883532344239020E-012
  -1.8850000000000006E-002    -5.3280395607139762E-012
  -1.8000000000000002E-002    -6.3767333406206163E-013
  -1.7149999999999999E-002     5.3462709935091385E-012
  -1.6299999999999995E-002     1.2331347573527209E-011
  -1.5450000000000005E-002     1.9867187600359833E-011
  -1.4600000000000002E-002     2.7357101315141089E-011
  -1.3749999999999998E-002     3.4084071043101155E-011
  -1.2899999999999995E-002     3.9250808723821437E-011
  -1.2050000000000005E-002     4.2032636101262829E-011
  -1.1200000000000002E-002     4.1640803573470854E-011
  -1.0349999999999998E-002     3.7392861005498098E-011
  -9.5000000000000084E-003     2.8786073029012093E-011
  -8.6500000000000049E-003     1.5568936979535233E-011
  -7.8000000000000014E-003    -2.1943869351513408E-012
  -6.9499999999999978E-003    -2.4072211656165406E-011
  -6.1000000000000082E-003    -4.9231413743373725E-011
  -5.2500000000000047E-003    -7.6426280256906529E-011
  -4.4000000000000011E-003    -1.0401461530748934E-010
  -3.5499999999999976E-003    -1.3000384203315433E-010
  -2.7000000000000079E-003    -1.5212926706617511E-010
  -1.8500000000000044E-003    -1.6796406050854609E-010
  -1.0000000000000009E-003    -1.7505910908744926E-010
  -1.4999999999999736E-004    -1.7110853870158106E-010
   6.9999999999999230E-004    -1.5413371465972984E-010
   1.5499999999999958E-003    -1.2267701460996575E-010
   2.3999999999999994E-003    -7.5993867709750773E-011
   3.2500000000000029E-003    -1.4229860410642011E-011
   4.0999999999999925E-003     6.1431470499260986E-011
   4.9499999999999961E-003     1.4866505599356051E-010
   5.7999999999999996E-003     2.4395760640682829E-010
   6.6499999999999893E-003     3.4263181560297497E-010
   7.5000000000000067E-003     4.3894805766572651E-010
   8.3499999999999963E-003     5.2628881209950312E-010
   9.1999999999999860E-003     5.9742512271779325E-010
   1.0050000000000003E-002     6.4485920850354081E-010
   1.0899999999999993E-002     6.6123095690333423E-010
   1.1750000000000010E-002     6.3977314928629515E-010
   1.2600000000000000E-002     5.7479593075420548E-010
   1.3449999999999990E-002     4.6217974311309023E-010
   1.4300000000000007E-002     2.9985562760932107E-010
   1.5149999999999997E-002     8.8252576547533924E-011
   1.5999999999999986E-002    -1.6930081145398449E-010
   1.6850000000000004E-002    -4.6623840204170855E-010
   1.7699999999999994E-002    -7.9248329708653914E-010
   1.8549999999999983E-002    -1.1342483335231728E-009
   1.9400000000000001E-002    -1.4739035222135668E-009
   2.0249999999999990E-002    -1.7899150765376796E-009
   2.1100000000000008E-002    -2.0568396779576120E-009
   2.1949999999999997E-002    -2.2453672216343622E-009
   2.2799999999999987E-002    -2.3224066483678840E-009
   2.3650000000000004E-002    -2.2511912155531391E-009
   2.4499999999999994E-002    -1.9913848979097341E-009
   2.5349999999999984E-002    -1.4991616395840112E-009
   2.6200000000000001E-002    -7.2723993031799507E-010
   2.7049999999999991E-002     3.7519882460020473E-010
   2.7900000000000008E-002     1.8627178961759367E-009
   2.8749999999999998E-002     3.7940815698315818E-009
   2.9599999999999987E-002     6.2329038283011701E-009
   3.0450000000000005E-002     9.2487232764136514E-009
   3.1299999999999994E-002     1.2918413572170709E-008
   3.2149999999999984E-002     1.7328110628051984E-008
   3.3000000000000002E-002     2.2575601930743306E-008
   3.3849999999999991E-002     2.8773359326069953E-008
   3.4700000000000009E-002     3.6052162198701558E-008
   3.5549999999999998E-002     4.4565325246890904E-008
   3.6399999999999988E-002     5.4493579856043253E-008
   3.7250000000000005E-002     6.6050719656449859E-008
   3.8099999999999995E-002     7.9489727926805645E-008
   3.8949999999999985E-002     9.5109681852960712E-008
   3.9800000000000002E-002     1.1326327094865268E-007
   4.0649999999999992E-002     1.3436503699357425E-007
   4.1500000000000009E-002     1.5890010544040741E-007
   4.2349999999999999E-002     1.8743402288734336E-007
   4.3199999999999988E-002     2.2062297426915627E-007
   4.4050000000000006E-002     2.5922499907103614E-007
   4.4899999999999995E-002     3.0411207843174345E-007
   4.5749999999999985E-002     3.5628372938060926E-007
   4.6600000000000003E-002     4.1688066995453673E-007
   4.7449999999999992E-002     4.8720080316782732E-007
   4.8299999999999982E-002     5.6871597009300672E-007
   4.9149999999999999E-002     6.6309023166656197E-007
   4.9999999999999989E-002     7.7220083424773845E-007
   5.0850000000000006E-002     8.9815780879006149E-007
   5.1699999999999996E-002     1.0433296954847858E-006
   5.2549999999999986E-002     1.2103669482150846E-006
   5.3400000000000003E-002     1.4022313302766310E-006
   5.4249999999999993E-002     1.6222215780753889E-006
   5.5099999999999982E-002     1.8740076682421371E-006
   5.5950000000000000E-002     2.1616605049674513E-006
   5.6799999999999989E-002     2.4896881458001710E-006
   5.7650000000000007E-002     2.8630702406804785E-006
   5.8499999999999996E-002     3.2872938823451230E-006
   5.9349999999999986E-002     3.7683905517476823E-006
   6.0200000000000004E-002     4.3129741131084842E-006
   6.1049999999999993E-002     4.9282773213930395E-006
   6.1899999999999983E-002     5.6221885495418978E-006
   6.2750000000000000E-002     6.4032838568597487E-006
   6.3599999999999990E-002     7.2808637317102505E-006
   6.4450000000000007E-002     8.2649749961796574E-006
   6.5299999999999997E-002     9.3664403416321266E-006
   6.6149999999999987E-002     1.0596870110739137E-005
   6.7000000000000004E-002     1.1968694653591837E-005
   6.7849999999999994E-002     1.3495141558950196E-005
   6.8699999999999983E-002     1.5190249120267650E-005
   6.9550000000000001E-002     1.7068860047421122E-005
   7.0399999999999990E-002     1.9146581991172332E-005
   7.1249999999999980E-002     2.1439751947336261E-005
   7.2099999999999997E-002     2.3965394990331955E-005
   7.2949999999999987E-002     2.6741149182570076E-005
   7.3800000000000004E-002     2.9785188382509902E-005
   7.4649999999999994E-002     3.3116112351459305E-005
   7.5499999999999984E-002     3.6752834071939773E-005
   7.6350000000000001E-002     4.0714418062826413E-005
   7.7199999999999991E-002     4.5019925134576148E-005
   7.8049999999999981E-002     4.9688242472970178E-005
   7.8899999999999998E-002     5.4737806579857274E-005
   7.9749999999999988E-002     6.0186431011052515E-005
   8.0600000000000005E-002     6.6051005038870574E-005
   8.1449999999999995E-002     7.2347188018999421E-005
   8.2299999999999984E-002     7.9089146827744476E-005
   8.3150000000000002E-002     8.6289132298102568E-005
   8.3999999999999991E-002     9.3957200837611605E-005
   8.4849999999999981E-002     1.0210077468389260E-004
   8.5699999999999998E-002     1.1072424333318653E-004
   8.6549999999999988E-002     1.1982853370457454E-004
   8.7400000000000005E-002     1.2941073799493968E-004
   8.8249999999999995E-002     1.3946356006907726E-004
   8.9099999999999985E-002     1.4997496520689530E-004
   8.9950000000000002E-002     1.6092766192096322E-004
   9.0799999999999992E-002     1.7229870911233725E-004
   9.1649999999999981E-002     1.8405906861213849E-004
   9.2499999999999999E-002     1.9617314093612362E-004
   9.3349999999999989E-002     2.0859859292225979E-004
   9.4200000000000006E-002     2.2128571289385858E-004
   9.5049999999999996E-002     2.3417734332036304E-004
   9.5899999999999985E-002     2.4720850191371887E-004
   9.6750000000000003E-002     2.6030617154043645E-004
   9.7599999999999992E-002     2.7338940098606729E-004
   9.8449999999999982E-002     2.8636880368511396E-004
   9.9299999999999999E-002     2.9914729300372289E-004
  0.10014999999999999          3.1161958438870931E-004
  0.10099999999999998          3.2367269908850041E-004
  0.10185000000000000          3.3518640143900531E-004
  0.10269999999999999          3.4603335258490082E-004
  0.10355000000000000          3.5608005714283072E-004
  0.10439999999999999          3.6518747745678532E-004
  0.10524999999999998          3.7321172173814768E-004
  0.10610000000000000          3.8000520281887372E-004
  0.10694999999999999          3.8541756540137279E-004
  0.10779999999999998          3.8929715391769720E-004
  0.10865000000000000          3.9149202580833232E-004
  0.10949999999999999          3.9185173202630874E-004
  0.11035000000000000          3.9022851806844584E-004
  0.11119999999999999          3.8647920605323265E-004
  0.11204999999999998          3.8046691226816735E-004
  0.11290000000000000          3.7206258486157675E-004
  0.11374999999999999          3.6114740516017031E-004
  0.11459999999999998          3.4761413028438863E-004
  0.11545000000000000          3.3136895519192888E-004
  0.11629999999999999          3.1233338037177469E-004
  0.11715000000000000          2.9044652514207645E-004
  0.11799999999999999          2.6566608267430237E-004
  0.11884999999999998          2.3797029377475696E-004
  0.11970000000000000          2.0735958294341436E-004
  0.12054999999999999          1.7385789958516929E-004
  0.12139999999999998          1.3751350172441979E-004
  0.12225000000000000          9.8400722876998095E-005
  0.12309999999999999          5.6619846824479240E-005
  0.12395000000000000          1.2298506160661476E-005
  0.12479999999999999         -3.4408785831934423E-005
  0.12564999999999998         -8.3320010217496779E-005
  0.12650000000000000         -1.3422663464224244E-004
  0.12734999999999999         -1.8689347031471633E-004
  0.12819999999999998         -2.4105996436305568E-004
  0.12905000000000000         -2.9644202772311775E-004
  0.12989999999999999         -3.5273278931030887E-004
  0.13074999999999998         -4.0960459011703297E-004
  0.13159999999999999         -4.6671158480442973E-004
  0.13245000000000001         -5.2369199262163036E-004
  0.13329999999999997         -5.8017061832491012E-004
  0.13414999999999999         -6.3576227395440907E-004
  0.13500000000000001         -6.9007484129941159E-004
  0.13584999999999997         -7.4271241034207778E-004
  0.13669999999999999         -7.9327935015315943E-004
  0.13755000000000001         -8.4138363022517317E-004
  0.13839999999999997         -8.8664073578815898E-004
  0.13924999999999998         -9.2867754773424710E-004
  0.14010000000000000         -9.6713594808967257E-004
  0.14094999999999996         -1.0016768984599644E-003
  0.14179999999999998         -1.0319839860008719E-003
  0.14265000000000000         -1.0577665797820628E-003
  0.14350000000000002         -1.0787633371305207E-003
  0.14434999999999998         -1.0947455806112252E-003
  0.14520000000000000         -1.1055194949789471E-003
  0.14605000000000001         -1.1109288535220896E-003
  0.14689999999999998         -1.1108572542518754E-003
  0.14774999999999999         -1.1052295826487458E-003
  0.14860000000000001         -1.0940132069348566E-003
  0.14944999999999997         -1.0772192365946401E-003
  0.15029999999999999         -1.0549025917565898E-003
  0.15115000000000001         -1.0271618410934197E-003
  0.15199999999999997         -9.9413919924775307E-004
  0.15284999999999999         -9.5601881072152235E-004
  0.15370000000000000         -9.1302588909497498E-004
  0.15454999999999997         -8.6542442650251478E-004
  0.15539999999999998         -8.1351518478662481E-004
  0.15625000000000000         -7.5763247903788797E-004
  0.15709999999999996         -6.9814205238650433E-004
  0.15794999999999998         -6.3543659484556524E-004
  0.15880000000000000         -5.6993230916533211E-004
  0.15965000000000001         -5.0206540206201812E-004
  0.16049999999999998         -4.3228753466916935E-004
  0.16134999999999999         -3.6106168362537308E-004
  0.16220000000000001         -2.8885807748456696E-004
  0.16304999999999997         -2.1614925179675820E-004
  0.16389999999999999         -1.4340619035094359E-004
  0.16475000000000001         -7.1093207683598745E-005
  0.16559999999999997          3.3514983341638807E-007
  0.16644999999999999          7.0438725324974919E-005
  0.16730000000000000          1.3879585484964982E-004
  0.16814999999999997          2.0500622964378457E-004
  0.16899999999999998          2.6869447956094216E-004
  0.16985000000000000          3.2951363952451291E-004
  0.17069999999999996          3.8714666059020797E-004
  0.17154999999999998          4.4130939599570538E-004
  0.17240000000000000          4.9175199237591518E-004
  0.17325000000000002          5.3826065464408150E-004
  0.17409999999999998          5.8065855686121855E-004
  0.17494999999999999          6.1880603104084758E-004
  0.17580000000000001          6.5260072424166309E-004
  0.17664999999999997          6.8197777821790554E-004
  0.17749999999999999          7.0690884938397246E-004
  0.17835000000000001          7.2740127063301765E-004
  0.17919999999999997          7.4349650145549536E-004
  0.18004999999999999          7.5526842575623953E-004
  0.18090000000000001          7.6282162945335056E-004
  0.18174999999999997          7.6628904008720696E-004
  0.18259999999999998          7.6582951002491704E-004
  0.18345000000000000          7.6162517533922148E-004
  0.18429999999999996          7.5387898340126584E-004
  0.18514999999999998          7.4281157967606487E-004
  0.18600000000000000          7.2865846832443531E-004
  0.18684999999999996          7.1166741243650132E-004
  0.18769999999999998          6.9209505781665055E-004
  0.18855000000000000          6.7020442179128038E-004
  0.18940000000000001          6.4626210257177821E-004
  0.19024999999999997          6.2053549322693973E-004
  0.19109999999999999          5.9329031024325199E-004
  0.19195000000000001          5.6478846022874507E-004
  0.19279999999999997          5.3528559935140415E-004
  0.19364999999999999          5.0502917050783728E-004
  0.19450000000000001          4.7425681636425614E-004
  0.19534999999999997          4.4319483810929751E-004
  0.19619999999999999          4.1205658771944142E-004
  0.19705000000000000          3.8104174551417707E-004
  0.19789999999999996          3.5033514498550170E-004
  0.19874999999999998          3.2010621630999912E-004
  0.19960000000000000          2.9050860869592242E-004
  0.20044999999999996          2.6167976266153789E-004
  0.20129999999999998          2.3374109230458166E-004
  0.20215000000000000          2.0679789763802459E-004
  0.20300000000000001          1.8093967577228565E-004
  0.20384999999999998          1.5624067108255436E-004
  0.20469999999999999          1.3276043274091054E-004
  0.20555000000000001          1.1054429052125759E-004
  0.20639999999999997          8.9624373224392453E-005
  0.20724999999999999          7.0020379401532689E-005
  0.20810000000000001          5.1740380509082511E-005
  0.20894999999999997          3.4781856700292945E-005
  0.20979999999999999          1.9132621190882779E-005
  0.21065000000000000          4.7719253955975757E-006
  0.21149999999999997         -8.3288203718257784E-006
  0.21234999999999998         -2.0204743317989366E-005
  0.21320000000000000         -3.0896818491938570E-005
  0.21404999999999996         -4.0450895156643194E-005
  0.21489999999999998         -4.8916736008900355E-005
  0.21575000000000000         -5.6347329350926923E-005
  0.21659999999999996         -6.2797930090207517E-005
  0.21744999999999998         -6.8325440206594125E-005
  0.21829999999999999         -7.2987940321601750E-005
  0.21915000000000001         -7.6843776089253283E-005
  0.21999999999999997         -7.9951152212263715E-005
  0.22084999999999999         -8.2367705600024528E-005
  0.22170000000000001         -8.4150012325185752E-005
  0.22254999999999997         -8.5353291807356064E-005
  0.22339999999999999         -8.6031074028225610E-005
  0.22425000000000000         -8.6234900947641512E-005
  0.22509999999999997         -8.6014096344848176E-005
  0.22594999999999998         -8.5415811319265183E-005
  0.22680000000000000         -8.4484559702160202E-005
  0.22764999999999996         -8.3262368532606467E-005
  0.22849999999999998         -8.1788710033788503E-005
  0.22935000000000000         -8.0100308023510827E-005
  0.23019999999999996         -7.8231296115596782E-005
  0.23104999999999998         -7.6213117834518127E-005
  0.23190000000000000         -7.4074684106420149E-005
  0.23275000000000001         -7.1842327615413213E-005
  0.23359999999999997         -6.9539989294613256E-005
  0.23444999999999999         -6.7189102727139617E-005
  0.23530000000000001         -6.4808901531859670E-005
  0.23614999999999997         -6.2416477931027104E-005
  0.23699999999999999         -6.0026796279936910E-005
  0.23785000000000001         -5.7652890319480381E-005
  0.23869999999999997         -5.5306027921086608E-005
  0.23954999999999999         -5.2995776068383205E-005
  0.24040000000000000         -5.0730141402738745E-005
  0.24124999999999996         -4.8515698061653904E-005
  0.24209999999999998         -4.6357752548592002E-005
  0.24295000000000000         -4.4260393960066643E-005
  0.24379999999999996         -4.2226741101037077E-005
  0.24464999999999998         -4.0258950433154596E-005
  0.24550000000000000         -3.8358416601005972E-005
  0.24634999999999996         -3.6525866020503390E-005
  0.24719999999999998         -3.4761494383252667E-005
  0.24804999999999999         -3.3065013886836575E-005
  0.24890000000000001         -3.1435803597571190E-005
  0.24974999999999997         -2.9872989759624910E-005
  0.25059999999999999         -2.8375464332028541E-005
  0.25145000000000001         -2.6942061826412852E-005
  0.25229999999999997         -2.5571531315290256E-005
  0.25314999999999999         -2.4262592816474606E-005
  0.25400000000000000         -2.3014018585536085E-005
  0.25484999999999997         -2.1824616947634273E-005
  0.25569999999999998         -2.0693278790831465E-005
  0.25655000000000000         -1.9618999385434601E-005
  0.25739999999999996         -1.8600869356473781E-005
  0.25824999999999998         -1.7638016649114107E-005
  0.25910000000000000         -1.6729670300157253E-005
  0.25994999999999996         -1.5875077354162168E-005
  0.26079999999999998         -1.5073501063120612E-005
  0.26164999999999999         -1.4324152285819733E-005
  0.26249999999999996         -1.3626219462882042E-005
  0.26334999999999997         -1.2978772651453621E-005
  0.26419999999999999         -1.2380782822131736E-005
  0.26505000000000001         -1.1831065790234655E-005
  0.26589999999999997         -1.1328291677924683E-005
  0.26674999999999999         -1.0870953518517093E-005
  0.26760000000000000         -1.0457347786645599E-005
  0.26844999999999997         -1.0085595516987652E-005
  0.26929999999999998         -9.7536419921802960E-006
  0.27015000000000000         -9.4592334597973879E-006
  0.27099999999999996         -9.1999184195764057E-006
  0.27184999999999998         -8.9730949952215570E-006
  0.27270000000000000         -8.7759975679194658E-006
  0.27354999999999996         -8.6057306105482907E-006
  0.27439999999999998         -8.4592906755260581E-006
  0.27524999999999999         -8.3336121114521450E-006
  0.27609999999999996         -8.2256152642212509E-006
  0.27694999999999997         -8.1322247230142241E-006
  0.27779999999999999         -8.0504221024300835E-006
  0.27865000000000001         -7.9773039296632632E-006
  0.27949999999999997         -7.9101030028873614E-006
  0.28034999999999999         -7.8462136740060493E-006
  0.28120000000000001         -7.7832567879982035E-006
  0.28204999999999997         -7.7190731050255394E-006
  0.28289999999999998         -7.6517498216743705E-006
  0.28375000000000000         -7.5796302605969756E-006
  0.28459999999999996         -7.5013348831456593E-006
  0.28544999999999998         -7.4157288372697371E-006
  0.28630000000000000         -7.3219445398660192E-006
  0.28714999999999996         -7.2193680818278447E-006
  0.28799999999999998         -7.1076092213055839E-006
  0.28885000000000000         -6.9864893108767294E-006
  0.28969999999999996         -6.8560426101956437E-006
  0.29054999999999997         -6.7164719609571302E-006
  0.29139999999999999         -6.5681366952355858E-006
  0.29224999999999995         -6.4115341062025918E-006
  0.29309999999999997         -6.2472609031224179E-006
  0.29394999999999999         -6.0760044431513471E-006
  0.29480000000000001         -5.8985202269067571E-006
  0.29564999999999997         -5.7155808121805207E-006
  0.29649999999999999         -5.5279885356204955E-006
  0.29735000000000000         -5.3365129388595832E-006
  0.29819999999999997         -5.1419026832039549E-006
  0.29904999999999998         -4.9448489005659523E-006
  0.29990000000000000         -4.7459792415170809E-006
  0.30074999999999996         -4.5458730615158790E-006
  0.30159999999999998         -4.3450364792004603E-006
  0.30245000000000000         -4.1439394806714992E-006
  0.30329999999999996         -3.9430104054418739E-006
  0.30414999999999998         -3.7426614137123669E-006
  0.30499999999999999         -3.5433085328332717E-006
  0.30584999999999996         -3.3453827624590590E-006
  0.30669999999999997         -3.1493366808186507E-006
  0.30754999999999999         -2.9556641981824270E-006
  0.30840000000000001         -2.7648933656253123E-006
  0.30924999999999997         -2.5775864143150634E-006
  0.31009999999999999         -2.3943509348402867E-006
  0.31095000000000000         -2.2158335014296387E-006
  0.31179999999999997         -2.0427238123534850E-006
  0.31264999999999998         -1.8757504422350668E-006
  0.31350000000000000         -1.7156899264914579E-006
  0.31434999999999996         -1.5633595730450096E-006
  0.31519999999999998         -1.4196216581261826E-006
  0.31605000000000000         -1.2853573992816861E-006
  0.31689999999999996         -1.1614686391809856E-006
  0.31774999999999998         -1.0488396079342458E-006
  0.31859999999999999         -9.4832817949720562E-007
  0.31944999999999996         -8.6071863513252828E-007
  0.32029999999999997         -7.8670618634789900E-007
  0.32114999999999999         -7.2685538188858808E-007
  0.32199999999999995         -6.8159642295449899E-007
  0.32284999999999997         -6.5119420004806715E-007
  0.32369999999999999         -6.3573794695710923E-007
  0.32455000000000001         -6.3513979754724312E-007
  0.32539999999999997         -6.4913310089073134E-007
  0.32624999999999998         -6.7727674829086243E-007
  0.32710000000000000         -7.1894987150321441E-007
  0.32794999999999996         -7.7337179259659997E-007
  0.32879999999999998         -8.3959611927339627E-007
  0.32965000000000000         -9.1652855178257009E-007
  0.33049999999999996         -1.0029271759807631E-006
  0.33134999999999998         -1.0974277048878887E-006
  0.33220000000000000         -1.1985522028250049E-006
  0.33304999999999996         -1.3047345498318442E-006
  0.33389999999999997         -1.4143421460856339E-006
  0.33474999999999999         -1.5257136033860098E-006
  0.33559999999999995         -1.6371833469611246E-006
  0.33644999999999997         -1.7471121027285369E-006
  0.33729999999999999         -1.8539213512609149E-006
  0.33815000000000001         -1.9561142966767539E-006
  0.33899999999999997         -2.0523078209150389E-006
  0.33984999999999999         -2.1412524556153721E-006
  0.34070000000000000         -2.2218421874266339E-006
  0.34154999999999996         -2.2931305337014282E-006
  0.34239999999999998         -2.3543370772900692E-006
  0.34325000000000000         -2.4048421753123972E-006