 -0.12000000000000000          0.0000000000000000
 -0.11914999999999999          0.0000000000000000
 -0.11830000000000000          0.0000000000000000
 -0.11745000000000000          0.0000000000000000
 -0.11660000000000000          0.0000000000000000
 -0.11574999999999999          0.0000000000000000
 -0.11490000000000000         -8.5646526356963059E-027
 -0.11405000000000000         -9.7915346025961953E-026
 -0.11320000000000000         -5.8544841854880897E-025
 -0.11234999999999999         -2.4168121045581151E-024
 -0.11150000000000000         -7.6625136592340769E-024
 -0.11065000000000000         -1.9623192747645654E-023
 -0.10979999999999999         -4.1441490010465108E-023
 -0.10894999999999999         -7.1759799277209977E-023
 -0.10810000000000000         -9.6658759250785692E-023
 -0.10725000000000000         -7.9806023355238947E-023
 -0.10639999999999999          4.2206052502194706E-023
 -0.10554999999999999          3.4622207792247977E-022
 -0.10470000000000000          8.7404662896619622E-022
 -0.10385000000000000          1.5380684894116177E-021
 -0.10299999999999999          1.9909955514600860E-021
 -0.10214999999999999          1.5093779645719526E-021
 -0.10130000000000000         -1.0074566170695557E-021
 -0.10045000000000000         -6.7776779603032247E-021
  -9.9599999999999994E-002    -1.6470955409561110E-020
  -9.8750000000000004E-002    -2.9077281264442045E-020
  -9.7900000000000001E-002    -4.0458531712253521E-020
  -9.7049999999999997E-002    -4.2056166094613967E-020
  -9.6199999999999994E-002    -2.0609119052190886E-020
  -9.5349999999999990E-002     3.9970844120142283E-020
  -9.4500000000000001E-002     1.5342532741062561E-019
  -9.3649999999999997E-002     3.2207871553161626E-019
  -9.2799999999999994E-002     5.2452476702544010E-019
  -9.1950000000000004E-002     7.0268295724252131E-019
  -9.1100000000000000E-002     7.5319834362983214E-019
  -9.0249999999999997E-002     5.3026497932758742E-019
  -8.9399999999999993E-002    -1.3220422516288362E-019
  -8.8549999999999990E-002    -1.3727169106930929E-018
  -8.7700000000000000E-002    -3.2273204921259766E-018
  -8.6849999999999997E-002    -5.5352084911744269E-018
  -8.5999999999999993E-002    -7.8443086707354849E-018
  -8.5150000000000003E-002    -9.3492932754633321E-018
  -8.4300000000000000E-002    -8.9046798507359987E-018
  -8.3449999999999996E-002    -5.1582924715923434E-018
  -8.2600000000000007E-002     3.1598932053490062E-018
  -8.1749999999999989E-002     1.6785515093419097E-017
  -8.0900000000000000E-002     3.5341118133435469E-017
  -8.0049999999999996E-002     5.6726926159902481E-017
  -7.9199999999999993E-002     7.6640536911335267E-017
  -7.8350000000000003E-002     8.8437136658050665E-017
  -7.7499999999999999E-002     8.3562067106801532E-017
  -7.6649999999999996E-002     5.2754806750430103E-017
  -7.5800000000000006E-002    -1.1880418936083928E-017
  -7.4949999999999989E-002    -1.1402221664600763E-016
  -7.4099999999999999E-002    -2.4982963378483272E-016
  -7.3249999999999996E-002    -4.0480147266871287E-016
  -7.2399999999999992E-002    -5.5166612159185539E-016
  -7.1550000000000002E-002    -6.5033005218577594E-016
  -7.0699999999999999E-002    -6.5089436213497563E-016
  -6.9849999999999995E-002    -5.0047296375179218E-016
  -6.9000000000000006E-002    -1.5397980282453528E-016
  -6.8149999999999988E-002     4.1180007975761937E-016
  -6.7299999999999999E-002     1.1825928084368173E-015
  -6.6449999999999995E-002     2.0922954695797341E-015
  -6.5599999999999992E-002     3.0136327275147753E-015
  -6.4750000000000002E-002     3.7579470829209752E-015
  -6.3899999999999998E-002     4.0879355051792047E-015
  -6.3049999999999995E-002     3.7458780364358984E-015
  -6.2199999999999998E-002     2.4976099309123085E-015
  -6.1350000000000002E-002     1.8931858807225607E-016
  -6.0499999999999998E-002    -3.1894522847267060E-015
  -5.9650000000000002E-002    -7.4468348065725834E-015
  -5.8799999999999998E-002    -1.2146757695803149E-014
  -5.7950000000000002E-002    -1.6598326069941744E-014
  -5.7099999999999998E-002    -1.9889354677197089E-014
  -5.6249999999999994E-002    -2.0972746753084365E-014
  -5.5400000000000005E-002    -1.8807284232638783E-014
  -5.4550000000000001E-002    -1.2544787392841481E-014
  -5.3699999999999998E-002    -1.7446544664281487E-015
  -5.2849999999999994E-002     1.3413715056996775E-014
  -5.2000000000000005E-002     3.1958382408866990E-014
  -5.1150000000000001E-002     5.2033632938930405E-014
  -5.0299999999999997E-002     7.0928877547805726E-014
  -4.9449999999999994E-002     8.5256520144587529E-014
  -4.8600000000000004E-002     9.1290212850593254E-014
  -4.7750000000000001E-002     8.5451257873712992E-014
  -4.6899999999999997E-002     6.4903949144390698E-014
  -4.6049999999999994E-002     2.8193474893979319E-014
  -4.5200000000000004E-002    -2.4161947966609201E-014
  -4.4350000000000001E-002    -8.9225989462963127E-014
  -4.3499999999999997E-002    -1.6144711690697615E-013
  -4.2649999999999993E-002    -2.3279429082138412E-013
  -4.1800000000000004E-002    -2.9327778708984865E-013
  -4.0950000000000000E-002    -3.3186153976970534E-013
  -4.0099999999999997E-002    -3.3771746053908556E-013
  -3.9249999999999993E-002    -3.0171449367229576E-013
  -3.8400000000000004E-002    -2.1798247877664456E-013
  -3.7550000000000000E-002    -8.5354143961986644E-014
  -3.6699999999999997E-002     9.1527483334874983E-014
  -3.5850000000000007E-002     3.0163648666259081E-013
  -3.5000000000000003E-002     5.2768497392908865E-013
  -3.4150000000000000E-002     7.4702770498119479E-013
  -3.3299999999999996E-002     9.3335091737013024E-013
  -3.2450000000000007E-002     1.0590473939106884E-012
  -3.1600000000000003E-002     1.0980818531203456E-012
  -3.0750000000000000E-002     1.0290703340693772E-012
  -2.9899999999999996E-002     8.3824735406336388E-013
  -2.9050000000000006E-002     5.2197617449322483E-013
  -2.8200000000000003E-002     8.8490910657226965E-014
  -2.7349999999999999E-002    -4.4137696444712182E-013
  -2.6499999999999996E-002    -1.0346317132522279E-012
  -2.5650000000000006E-002    -1.6477277859591808E-012
  -2.4800000000000003E-002    -2.2292645170518294E-012
  -2.3949999999999999E-002    -2.7235453411765494E-012
  -2.3099999999999996E-002    -3.0747041374610880E-012
  -2.2250000000000006E-002    -3.2310537728029475E-012
  -2.1400000000000002E-002    -3.1493113809905692E-012
  -2.0549999999999999E-002    -2.7983951586456460E-012
  -1.9699999999999995E-002    -2.1625535827679121E-012
  -1.8850000000000006E-002    -1.2436787494886910E-012
  -1.8000000000000002E-002    -6.2736388754642227E-014
  -1.7149999999999999E-002     1.3396812079324699E-012
  -1.6299999999999995E-002     2.9036366182121373E-012
  -1.5450000000000005E-002     4.5509115547865817E-012
  -1.4600000000000002E-002     6.1868299508169828E-012
  -1.3749999999999998E-002     7.7028620277464514E-012
  -1.2899999999999995E-002     8.9800872609535139E-012
  -1.2050000000000005E-002     9.8936277029513122E-012
  -1.1200000000000002E-002     1.0318176388916875E-011
  -1.0349999999999998E-002     1.0134711481921973E-011
  -9.5000000000000084E-003     9.2383829748189797E-012
  -8.6500000000000049E-003     7.5474410665239508E-012
  -7.8000000000000014E-003     5.0128798404432777E-012
  -6.9499999999999978E-003     1.6282993892511661E-012
  -6.1000000000000082E-003    -2.5607263854060481E-012
  -5.2500000000000047E-003    -7.4485913672179618E-012
  -4.4000000000000011E-003    -1.2863864059805573E-011
  -3.5499999999999976E-003    -1.8566697060278212E-011
  -2.7000000000000079E-003    -2.4250323721366395E-011
  -1.8500000000000044E-003    -2.9547354287161012E-011
  -1.0000000000000009E-003    -3.4041364538635612E-011
  -1.4999999999999736E-004    -3.7283906915230763E-011
   6.9999999999999230E-004    -3.8816807090333196E-011
   1.5499999999999958E-003    -3.8199084460753336E-011
   2.3999999999999994E-003    -3.5037572475617340E-011
   3.2500000000000029E-003    -2.9019802509774444E-011
   4.0999999999999925E-003    -1.9947468896973261E-011
   4.9499999999999961E-003    -7.7684460406884559E-012
   5.7999999999999996E-003     7.3948104055040674E-012
   6.6499999999999893E-003     2.5222703123213203E-011
   7.5000000000000067E-003     4.5184032417586255E-011
   8.3499999999999963E-003     6.6531506043102823E-011
   9.1999999999999860E-003     8.8308875734235167E-011
   1.0050000000000003E-002     1.0937076746141536E-010
   1.0899999999999993E-002     1.2841560180779578E-010
   1.1750000000000010E-002     1.4403142916014435E-010
   1.2600000000000000E-002     1.5475343916444600E-010
   1.3449999999999990E-002     1.5913172538802854E-010
   1.4300000000000007E-002     1.5580647515858202E-010
   1.5149999999999997E-002     1.4358794356815846E-010
   1.5999999999999986E-002     1.2153763888558998E-010
   1.6850000000000004E-002     8.9047360677870034E-011
   1.7699999999999994E-002     4.5912142143640826E-011
   1.8549999999999983E-002    -7.6061686638679222E-012
   1.9400000000000001E-002    -7.0728181234363262E-011
   2.0249999999999990E-002    -1.4212230908806871E-010
   2.1100000000000008E-002    -2.1988878503927763E-010
   2.1949999999999997E-002    -3.0156529260221884E-010
   2.2799999999999987E-002    -3.8415608796902970E-010
   2.3650000000000004E-002    -4.6418701815201036E-010
   2.4499999999999994E-002    -5.3778807285168867E-010
   2.5349999999999984E-002    -6.0080448605191230E-010
   2.6200000000000001E-002    -6.4893786104812088E-010
   2.7049999999999991E-002    -6.7791621136811139E-010
   2.7900000000000008E-002    -6.8369310933426699E-010
   2.8749999999999998E-002    -6.6267207834926804E-010
   2.9599999999999987E-002    -6.1195403274790051E-010
   3.0450000000000005E-002    -5.2960100836430696E-010
   3.1299999999999994E-002    -4.1490965352055881E-010
   3.2149999999999984E-002    -2.6868497244512651E-010
   3.3000000000000002E-002    -9.3506440164717350E-011
   3.3849999999999991E-002     1.0602589999215107E-010
   3.4700000000000009E-002     3.2307318330737311E-010
   3.5549999999999998E-002     5.4837700974743078E-010
   3.6399999999999988E-002     7.7012073180044036E-010
   3.7250000000000005E-002     9.7383668893567804E-010
   3.8099999999999995E-002     1.1423562657919584E-009
   3.8949999999999985E-002     1.2557986258610261E-009
   3.9800000000000002E-002     1.2915848741891999E-009
   4.0649999999999992E-002     1.2244616405575512E-009
   4.1500000000000009E-002     1.0265158355252223E-009
   4.2349999999999999E-002     6.6715258209180962E-010
   4.3199999999999988E-002     1.1301818661212796E-010
   4.4050000000000006E-002    -6.7216968636028529E-010
   4.4899999999999995E-002    -1.7279097884872881E-009
   4.5749999999999985E-002    -3.0973428373749314E-009
   4.6600000000000003E-002    -4.8278483186615692E-009
   4.7449999999999992E-002    -6.9718469642688138E-009
   4.8299999999999982E-002    -9.5878132036949012E-009
   4.9149999999999999E-002    -1.2741530690923786E-008
   4.9999999999999989E-002    -1.6507643101194229E-008
   5.0850000000000006E-002    -2.0971453346963821E-008
   5.1699999999999996E-002    -2.6231088364177061E-008
   5.2549999999999986E-002    -3.2400014466381036E-008
   5.3400000000000003E-002    -3.9609906140879259E-008
   5.4249999999999993E-002    -4.8014015298736434E-008
   5.5099999999999982E-002    -5.7790942581015791E-008
   5.5950000000000000E-002    -6.9148959109896665E-008
   5.6799999999999989E-002    -8.2330859229037778E-008
   5.7650000000000007E-002    -9.7619448890047219E-008
   5.8499999999999996E-002    -1.1534372312373090E-007
   5.9349999999999986E-002    -1.3588569911793562E-007
   6.0200000000000004E-002    -1.5968807943907318E-007
   6.1049999999999993E-002    -1.8726276940535919E-007
   6.1899999999999983E-002    -2.1920019434036589E-007
   6.2750000000000000E-002    -2.5617971023451771E-007
   6.3599999999999990E-002    -2.9898103204621134E-007
   6.4450000000000007E-002    -3.4849681852663498E-007
   6.5299999999999997E-002    -4.0574638535621548E-007
   6.6149999999999987E-002    -4.7189076524626731E-007
   6.7000000000000004E-002    -5.4824933021992121E-007
   6.7849999999999994E-002    -6.3631760879225096E-007
   6.8699999999999983E-002    -7.3778661908009248E-007
   6.9550000000000001E-002    -8.5456461105868180E-007
   7.0399999999999990E-002    -9.8879934534732037E-007
   7.1249999999999980E-002    -1.1429029275552318E-006
   7.2099999999999997E-002    -1.3195782454521729E-006
   7.2949999999999987E-002    -1.5218467987294511E-006
   7.3800000000000004E-002    -1.7530793015346861E-006
   7.4649999999999994E-002    -2.0170268056289224E-006
   7.5499999999999984E-002    -2.3178532317409054E-006
   7.6350000000000001E-002    -2.6601721541922358E-006
   7.7199999999999991E-002    -3.0490794976538283E-006
   7.8049999999999981E-002    -3.4901940056071674E-006
   7.8899999999999998E-002    -3.9896907530587899E-006
   7.9749999999999988E-002    -4.5543402337589994E-006
   8.0600000000000005E-002    -5.1915452573150077E-006
   8.1449999999999995E-002    -5.9093790492055497E-006
   8.2299999999999984E-002    -6.7166137283501482E-006
   8.3150000000000002E-002    -7.6227604158545251E-006
   8.3999999999999991E-002    -8.6380916780827407E-006
   8.4849999999999981E-002    -9.7736649938238984E-006
   8.5699999999999998E-002    -1.1041344967810992E-005
   8.6549999999999988E-002    -1.2453812751491434E-005
   8.7400000000000005E-002    -1.4024571968672428E-005
   8.8249999999999995E-002    -1.5767940933587058E-005
   8.9099999999999985E-002    -1.7699038536671437E-005
   8.9950000000000002E-002    -1.9833751658486397E-005
   9.0799999999999992E-002    -2.2188695170362452E-005
   9.1649999999999981E-002    -2.4781161329901067E-005
   9.2499999999999999E-002    -2.7629031702102988E-005
   9.3349999999999989E-002    -3.0750697942217674E-005
   9.4200000000000006E-002    -3.4164938592633194E-005
   9.5049999999999996E-002    -3.7890794094248580E-005
   9.5899999999999985E-002    -4.1947409697132621E-005
   9.6750000000000003E-002    -4.6353832983736304E-005
   9.7599999999999992E-002    -5.1128849739456190E-005
   9.8449999999999982E-002    -5.6290734425092774E-005
   9.9299999999999999E-002    -6.1856963011630589E-005
  0.10014999999999999         -6.7843998160585647E-005
  0.10099999999999998         -7.4266924560034337E-005
  0.10185000000000000         -8.1139137551833337E-005
  0.10269999999999999         -8.8472002887074182E-005
  0.10355000000000000         -9.6274438919961513E-005
  0.10439999999999999         -1.0455255780234754E-004
  0.10524999999999998         -1.1330922797327601E-004
  0.10610000000000000         -1.2254367084063461E-004
  0.10694999999999999         -1.3225096792223804E-004
  0.10779999999999998         -1.4242161840802002E-004
  0.10865000000000000         -1.5304118819241052E-004
  0.10949999999999999         -1.6408967218886633E-004
  0.11035000000000000         -1.7554136217480542E-004
  0.11119999999999999         -1.8736403102997059E-004
  0.11204999999999998         -1.9951891500476310E-004
  0.11290000000000000         -2.1196022951303591E-004
  0.11374999999999999         -2.2463464738846923E-004
  0.11459999999999998         -2.3748131073924735E-004
  0.11545000000000000         -2.5043161480402362E-004
  0.11629999999999999         -2.6340869843026856E-004
  0.11715000000000000         -2.7632784985113053E-004
  0.11799999999999999         -2.8909622596115395E-004
  0.11884999999999998         -3.0161306945662134E-004
  0.11970000000000000         -3.1376989437406611E-004
  0.12054999999999999         -3.2545080770077825E-004
  0.12139999999999998         -3.3653279277793614E-004
  0.12225000000000000         -3.4688641728157060E-004
  0.12309999999999999         -3.5637656285086405E-004
  0.12395000000000000         -3.6486295812785215E-004
  0.12479999999999999         -3.7220111974852057E-004
  0.12564999999999998         -3.7824378426663493E-004
  0.12650000000000000         -3.8284160327077890E-004
  0.12734999999999999         -3.8584450263205868E-004
  0.12819999999999998         -3.8710330763663169E-004
  0.12905000000000000         -3.8647096175242773E-004
  0.12989999999999999         -3.8380425402294841E-004
  0.13074999999999998         -3.7896518208980167E-004
  0.13159999999999999         -3.7182306487355663E-004
  0.13245000000000001         -3.6225628945394148E-004
  0.13329999999999997         -3.5015401976644074E-004
  0.13414999999999999         -3.3541773985379554E-004
  0.13500000000000001         -3.1796354252175754E-004
  0.13584999999999997         -2.9772389466977453E-004
  0.13669999999999999         -2.7464877130769469E-004
  0.13755000000000001         -2.4870773635344754E-004
  0.13839999999999997         -2.1989134279654915E-004
  0.13924999999999998         -1.8821235595079468E-004
  0.14010000000000000         -1.5370769893713289E-004
  0.14094999999999996         -1.1643822056197016E-004
  0.14179999999999998         -7.6491105467859228E-005
  0.14265000000000000         -3.3978700312294177E-005
  0.14350000000000002          1.0959304831832095E-005
  0.14434999999999998          5.8157171644455911E-005
  0.14520000000000000          1.0742217472764472E-004
  0.14605000000000001          1.5853628463019089E-004
  0.14689999999999998          2.1125600605410248E-004
  0.14774999999999999          2.6531366609100645E-004
  0.14860000000000001          3.2041920117717649E-004
  0.14944999999999997          3.7626116713138243E-004
  0.15029999999999999          4.3250959074084565E-004
  0.15115000000000001          4.8881716412588097E-004
  0.15199999999999997          5.4482278937730347E-004
  0.15284999999999999          6.0015392909659173E-004
  0.15370000000000000          6.5442930947811760E-004
  0.15454999999999997          7.0726280640702574E-004
  0.15539999999999998          7.5826646297569203E-004
  0.15625000000000000          8.0705393961143083E-004
  0.15709999999999996          8.5324442538584815E-004
  0.15794999999999998          8.9646592873343254E-004
  0.15880000000000000          9.3635947714810260E-004
  0.15965000000000001          9.7258223066654288E-004
  0.16049999999999998          1.0048114337734475E-003
  0.16134999999999999          1.0327474116231122E-003
  0.16220000000000001          1.0561176081909577E-003
  0.16304999999999997          1.0746789332276778E-003
  0.16389999999999999          1.0882209799565042E-003
  0.16475000000000001          1.0965687531079870E-003
  0.16559999999999997          1.0995842554419439E-003
  0.16644999999999999          1.0971694839571632E-003
  0.16730000000000000          1.0892665714825759E-003
  0.16814999999999997          1.0758599686431455E-003
  0.16899999999999998          1.0569763329407831E-003
  0.16985000000000000          1.0326851571043094E-003
  0.17069999999999996          1.0030988667935896E-003
  0.17154999999999998          9.6837141723918330E-004
  0.17240000000000000          9.2869745430590206E-004
  0.17325000000000002          8.8431132725099121E-004
  0.17409999999999998          8.3548411666520782E-004
  0.17494999999999999          7.8252206175486046E-004
  0.17580000000000001          7.2576358467182206E-004
  0.17664999999999997          6.6557687960272830E-004
  0.17749999999999999          6.0235472729564161E-004
  0.17835000000000001          5.3651306092353419E-004
  0.17919999999999997          4.6848565962179250E-004
  0.18004999999999999          3.9872060251594824E-004
  0.18090000000000001          3.2767614012215032E-004
  0.18174999999999997          2.5581570037963271E-004
  0.18259999999999998          1.8360513730475729E-004
  0.18345000000000000          1.1150676052471654E-004
  0.18429999999999996          3.9976830995113553E-005
  0.18514999999999998         -3.0539487307665994E-005
  0.18600000000000000         -9.9612258406070773E-005
  0.18684999999999996         -1.6682967070070890E-004
  0.18769999999999998         -2.3180196942505915E-004
  0.18855000000000000         -2.9416398320824931E-004
  0.18940000000000001         -3.5357896806777607E-004
  0.19024999999999997         -4.0974043891327543E-004
  0.19109999999999999         -4.6237403486498670E-004
  0.19195000000000001         -5.1124050252136137E-004
  0.19279999999999997         -5.5613501816227564E-004
  0.19364999999999999         -5.9688975126230559E-004
  0.19450000000000001         -6.3337376667612310E-004
  0.19534999999999997         -6.6549307748573513E-004
  0.19619999999999999         -6.9319081924473270E-004
  0.19705000000000000         -7.1644564844952196E-004
  0.19789999999999996         -7.3527204451500857E-004
  0.19874999999999998         -7.4971782339176493E-004
  0.19960000000000000         -7.5986295194572693E-004
  0.20044999999999996         -7.6581780776197766E-004
  0.20129999999999998         -7.6772072549915278E-004
  0.20215000000000000         -7.6573570713143850E-004
  0.20300000000000001         -7.6004992685780204E-004
  0.20384999999999998         -7.5087074346758312E-004
  0.20469999999999999         -7.3842307288460188E-004
  0.20555000000000001         -7.2294660781719287E-004
  0.20639999999999997         -7.0469294646270447E-004
  0.20724999999999999         -6.8392252552448417E-004
  0.20810000000000001         -6.6090198273212688E-004
  0.20894999999999997         -6.3590105649171389E-004
  0.20979999999999999         -6.0919030306118423E-004
  0.21065000000000000         -5.8103834690221667E-004
  0.21149999999999997         -5.5170947423230593E-004
  0.21234999999999998         -5.2146170016453830E-004
  0.21320000000000000         -4.9054430657964122E-004
  0.21404999999999996         -4.5919647905039184E-004
  0.21489999999999998         -4.2764544583723393E-004
  0.21575000000000000         -3.9610531044898683E-004
  0.21659999999999996         -3.6477575729583429E-004
  0.21744999999999998         -3.3384140093465627E-004
  0.21829999999999999         -3.0347077578809850E-004
  0.21915000000000001         -2.7381608068546045E-004
  0.21999999999999997         -2.4501291525655302E-004
  0.22084999999999999         -2.1718023450917884E-004
  0.22170000000000001         -1.9042026535038171E-004
  0.22254999999999997         -1.6481914828878373E-004
  0.22339999999999999         -1.4044725959063071E-004
  0.22425000000000000         -1.1735965832677004E-004
  0.22509999999999997         -9.5597025037585923E-005
  0.22594999999999998         -7.5186410051200156E-005
  0.22680000000000000         -5.6142110940455097E-005
  0.22764999999999996         -3.8466645576975091E-005
  0.22849999999999998         -2.2151893162715817E-005
  0.22935000000000000         -7.1799711831393615E-006
  0.23019999999999996          6.4757427051853383E-006
  0.23104999999999998          1.8849578666711081E-005
  0.23190000000000000          2.9982379582565783E-005
  0.23275000000000001          3.9920663679959890E-005
  0.23359999999999997          4.8715428736213371E-005
  0.23444999999999999          5.6421513242087082E-005
  0.23530000000000001          6.3096504095121352E-005
  0.23614999999999997          6.8800072755600622E-005
  0.23699999999999999          7.3593051406727614E-005
  0.23785000000000001          7.7536825017216908E-005
  0.23869999999999997          8.0692847046745657E-005
  0.23954999999999999          8.3122036010851630E-005
  0.24040000000000000          8.4884186231555170E-005
  0.24124999999999996          8.6037766209181622E-005
  0.24209999999999998          8.6639630328764981E-005
  0.24295000000000000          8.6744616511424873E-005
  0.24379999999999996          8.6405176937189804E-005
  0.24464999999999998          8.5671636691770663E-005
  0.24550000000000000          8.4591491010564392E-005
  0.24634999999999996          8.3209814845580830E-005
  0.24719999999999998          8.1568790372770069E-005
  0.24804999999999999          7.9708016249082825E-005
  0.24890000000000001          7.7664274238930007E-005
  0.24974999999999997          7.5471770341750902E-005
  0.25059999999999999          7.3161912977851915E-005
  0.25145000000000001          7.0763676548303518E-005
  0.25229999999999997          6.8303434424147778E-005
  0.25314999999999999          6.5805188898108917E-005
  0.25400000000000000          6.3290659969248765E-005
  0.25484999999999997          6.0779231608679455E-005
  0.25569999999999998          5.8288210726689978E-005
  0.25655000000000000          5.5832687092957539E-005
  0.25739999999999996          5.3425877975298188E-005
  0.25824999999999998          5.1079045852600854E-005
  0.25910000000000000          4.8801639563442139E-005
  0.25994999999999996          4.6601331298223762E-005
  0.26079999999999998          4.4484300275302930E-005
  0.26164999999999999          4.2455135686559413E-005
  0.26249999999999996          4.0516990961974767E-005
  0.26334999999999997          3.8671774464469710E-005
  0.26419999999999999          3.6920187370376856E-005
  0.26505000000000001          3.5261867446846666E-005
  0.26589999999999997          3.3695491628347165E-005
  0.26674999999999999          3.2218894126922670E-005
  0.26760000000000000          3.0829185509311687E-005
  0.26844999999999997          2.9522867644078955E-005
  0.26929999999999998          2.8295952910785929E-005
  0.27015000000000000          2.7144055414012944E-005
  0.27099999999999996          2.6062514004349299E-005
  0.27184999999999998          2.5046493364096573E-005
  0.27270000000000000          2.4091028936194251E-005
  0.27354999999999996          2.3191158654518995E-005
  0.27439999999999998          2.2341979596729554E-005
  0.27524999999999999          2.1538712366433189E-005
  0.27609999999999996          2.0776796347144215E-005
  0.27694999999999997          2.0051963053734292E-005
  0.27779999999999999          1.9360264575359733E-005
  0.27865000000000001          1.8698141695919219E-005
  0.27949999999999997          1.8062428748454648E-005
  0.28034999999999999          1.7450368235120931E-005
  0.28120000000000001          1.6859639285156017E-005
  0.28204999999999997          1.6288322371800435E-005
  0.28289999999999998          1.5734856667890043E-005
  0.28375000000000000          1.5198033357471076E-005
  0.28459999999999996          1.4676907320854545E-005
  0.28544999999999998          1.4170786527227208E-005
  0.28630000000000000          1.3679179522163693E-005
  0.28714999999999996          1.3201746075738827E-005
  0.28799999999999998          1.2738279671609455E-005
  0.28885000000000000          1.2288652917544944E-005
  0.28969999999999996          1.1852827374769595E-005
  0.29054999999999997          1.1430751284877301E-005
  0.29139999999999999          1.1022390409907127E-005
  0.29224999999999995          1.0627660797779947E-005
  0.29309999999999997          1.0246392784307790E-005
  0.29394999999999999          9.8783260183923254E-006
  0.29480000000000001          9.5230557413569174E-006
  0.29564999999999997          9.1800680981790785E-006
  0.29649999999999999          8.8487316588930861E-006
  0.29735000000000000          8.5283119214386365E-006
  0.29819999999999997          8.2179895126311039E-006
  0.29904999999999998          7.9169305873028597E-006
  0.29990000000000000          7.6242814101573390E-006
  0.30074999999999996          7.3392257261474332E-006
  0.30159999999999998          7.0609999737758166E-006
  0.30245000000000000          6.7889310067633024E-006
  0.30329999999999996          6.5224250011437398E-006
  0.30414999999999998          6.2610075513641046E-006
  0.30499999999999999          6.0043359055154428E-006
  0.30584999999999996          5.7522044542661971E-006
  0.30669999999999997          5.5045418460108310E-006
  0.30754999999999999          5.2614337773374505E-006
  0.30840000000000001          5.0231322609982020E-006
  0.30924999999999997          4.7900456118316265E-006
  0.31009999999999999          4.5627528597431282E-006
  0.31095000000000000          4.3419813128930794E-006
  0.31179999999999997          4.1285804475374014E-006
  0.31264999999999998          3.9234991856581375E-006
  0.31350000000000000          3.7277556551879048E-006
  0.31434999999999996          3.5423915440586608E-006
  0.31519999999999998          3.3684446444275144E-006
  0.31605000000000000          3.2069090448542881E-006
  0.31689999999999996          3.0586987373022167E-006
  0.31774999999999998          2.9246095545192596E-006
  0.31859999999999999          2.8052906581756427E-006
  0.31944999999999996          2.7012276707514828E-006
  0.32029999999999997          2.6127220077277918E-006
  0.32114999999999999          2.5398606831367901E-006
  0.32199999999999995          2.4825182547785134E-006
  0.32284999999999997          2.4403329257536730E-006
  0.32369999999999999          2.4127259633236264E-006
  0.32455000000000001          2.3989024269556397E-006
  0.32539999999999997          2.3978701965564992E-006
  0.32624999999999998          2.4084672841192163E-006
  0.32710000000000000          2.4293787295450219E-006
  0.32794999999999996          2.4591777947891076E-006
  0.32879999999999998          2.4963373190380052E-006
  0.32965000000000000          2.5392862887754381E-006
  0.33049999999999996          2.5864064026862073E-006
  0.33134999999999998          2.6360737093138446E-006
  0.33220000000000000          2.6866898338723642E-006
  0.33304999999999996          2.7367073653075910E-006
  0.33389999999999997          2.7846528601357979E-006
  0.33474999999999999          2.8291830927894805E-006
  0.33559999999999995          2.8690930040700731E-006
  0.33644999999999997          2.9033605286560355E-006
  0.33729999999999999          2.9311773279645728E-006
  0.33815000000000001          2.9519394278249441E-006
  0.33899999999999997          2.9652687821317575E-006
  0.33984999999999999          2.9709973916164727E-006
  0.34070000000000000          2.9691366621337053E-006
  0.34154999999999996          2.9598555346539811E-006
  0.34239999999999998          2.9434514462658524E-006
  0.34325000000000000          2.9203120214447572E-006