 -0.959999979       0.00000000
 -0.925000012       3.58333807E-08
 -0.889999986       3.69247715E-07
 -0.855000019       1.62208391E-06
 -0.819999993       4.11819792E-06
 -0.785000026       6.86676231E-06
 -0.750000000       1.07858941E-05
 -0.714999974       2.49234818E-05
 -0.680000007       6.03382614E-05
 -0.644999981       1.16289171E-04
 -0.610000014       1.91578511E-04
 -0.574999988       3.07888782E-04
 -0.540000021       4.91037150E-04
 -0.504999995       7.32502260E-04
 -0.469999999       9.95204202E-04
 -0.435000002       1.23009807E-03
 -0.400000006       1.35419832E-03
 -0.365000010       1.24724605E-03
 -0.330000013       7.96923239E-04
 -0.294999987      -7.11775792E-05
 -0.259999990      -1.37118308E-03
 -0.224999994      -2.99385283E-03
 -0.189999998      -4.67867777E-03
 -0.155000001      -6.07046112E-03
 -0.119999997      -6.73379702E-03
  -8.50000009E-02  -6.05647312E-03
  -5.00000007E-02  -3.14778159E-03
  -1.49999997E-02   3.18223983E-03
   1.99999996E-02   1.42452419E-02
   5.49999997E-02   3.07719689E-02
   9.00000036E-02   5.14451973E-02
  0.125000000       7.09411800E-02
  0.159999996       7.82560185E-02
  0.194999993       5.64331934E-02
  0.230000004      -1.50758829E-02
  0.264999986     -0.154754043
  0.300000012     -0.370743155
  0.335000008     -0.652087510
  0.370000005     -0.962591946
  0.405000001      -1.24050856
  0.439999998      -1.40612841
  0.474999994      -1.37710559
  0.509999990      -1.08889973
  0.545000017     -0.515796065
  0.579999983      0.313120782
  0.615000010       1.30831289
  0.649999976       2.32768893
  0.685000002       3.19827271
  0.720000029       3.74857044
  0.754999995       3.84526348
  0.790000021       3.42551136
  0.824999988       2.51627946
  0.860000014       1.23490572
  0.894999981     -0.230495900
  0.930000007      -1.65709376
  0.964999974      -2.83139443
   1.00000000      -3.59036756
   1.03499997      -3.84988332
   1.07000005      -3.61477232
   1.10500002      -2.96986604
   1.13999999      -2.05603194
   1.17499995      -1.03844726
   1.21000004      -7.50277638E-02
   1.24500000      0.708873749
   1.27999997       1.23619151
   1.31500006       1.48331070
   1.35000002       1.47531033
   1.38499999       1.27327073
   1.41999996      0.956798673
   1.45500004      0.605704784
   1.49000001      0.284918517
   1.52499998       3.58320773E-02
   1.55999994     -0.124873109
   1.59500003     -0.200567201
   1.63000000     -0.207642540
