 -0.800000012       0.00000000
 -0.788999975       0.00000000
 -0.777999997       0.00000000
 -0.767000020      -4.64283204E-07
 -0.755999982      -7.91144544E-07
 -0.745000005       5.89821593E-06
 -0.734000027       3.48570438E-06
 -0.722999990      -2.31473186E-05
 -0.712000012      -8.77057175E-07
 -0.700999975       5.11269172E-05
 -0.689999998      -2.66275547E-05
 -0.679000020      -6.70381050E-05
 -0.667999983       9.76160445E-05
 -0.657000005       2.61894656E-05
 -0.646000028      -1.90403443E-04
 -0.634999990       1.43441444E-04
 -0.624000013       2.64700473E-04
 -0.612999976      -4.59123024E-04
 -0.601999998      -2.71769881E-04
 -0.591000021       7.87902682E-04
 -0.579999983       1.17746065E-04
 -0.569000006      -8.86282418E-04
 -0.558000028       3.73199902E-04
 -0.546999991       7.40992662E-04
 -0.536000013      -1.04805513E-03
 -0.524999976      -3.88813234E-04
 -0.513999999       1.49021926E-03
 -0.503000021      -1.96163179E-04
 -0.492000014      -1.39096647E-03
 -0.481000006       9.63487255E-04
 -0.469999999       8.73724581E-04
 -0.458999991      -1.29969977E-03
 -0.448000014       3.19385552E-04
 -0.437000006       1.36453100E-03
 -0.425999999      -1.43689325E-03
 -0.414999992      -7.63744465E-04
 -0.404000014       2.26187916E-03
 -0.393000007       5.65794180E-05
 -0.381999999      -1.47320866E-03
 -0.370999992       2.16991175E-03
 -0.360000014       1.50883105E-03
 -0.349000007      -2.39424175E-03
 -0.338000000       9.93735390E-04
 -0.326999992       4.77495277E-03
 -0.316000015       6.91158348E-04
 -0.305000007      -3.72086943E-04
 -0.294000000       4.74272389E-03
 -0.282999992       4.52849083E-03
 -0.272000015       2.37776036E-03
 -0.261000007       7.23280944E-03
 -0.250000000       1.03142401E-02
 -0.238999993       7.76402466E-03
 -0.228000000       1.08567048E-02
 -0.216999993       1.78837702E-02
 -0.206000000       1.95733737E-02
 -0.194999993       2.28744559E-02
 -0.184000000       3.20075303E-02
 -0.172999993       3.71315405E-02
 -0.162000000       4.08288985E-02
 -0.150999993       5.33285514E-02
 -0.140000001       6.65643960E-02
 -0.128999993       7.34343827E-02
 -0.118000001       8.53617638E-02
 -0.107000001      0.104085885
  -9.60000008E-02  0.117492527
  -8.50000009E-02  0.129468501
  -7.40000010E-02  0.149760604
  -6.30000010E-02  0.169007748
  -5.20000011E-02  0.179852679
  -4.10000011E-02  0.192571387
  -2.99999993E-02  0.208847687
  -1.89999994E-02  0.217072964
  -8.00000038E-03  0.217147246
   3.00000003E-03  0.214825243
   1.40000004E-02  0.203314155
   2.50000004E-02  0.176985174
   3.59999985E-02  0.140908763
   4.69999984E-02   9.28950831E-02
   5.79999983E-02   2.34907437E-02
   6.89999983E-02  -6.61703125E-02
   7.99999982E-02 -0.172921956
   9.09999982E-02 -0.304317236
  0.101999998     -0.462671876
  0.112999998     -0.640612423
  0.123999998     -0.840900719
  0.135000005      -1.06990743
  0.145999998      -1.31777847
  0.157000005      -1.57510483
  0.167999998      -1.84696591
  0.179000005      -2.12865281
  0.189999998      -2.40165663
  0.201000005      -2.66011190
  0.211999997      -2.90273213
  0.223000005      -3.11047029
  0.233999997      -3.26545024
  0.245000005      -3.36512375
  0.256000012      -3.39911366
  0.266999990      -3.34721732
  0.277999997      -3.20161223
  0.289000005      -2.95930123
  0.300000012      -2.60844707
  0.310999990      -2.14402056
  0.321999997      -1.57301843
  0.333000004     -0.898156524
  0.344000012     -0.121935166
  0.354999989      0.739810944
  0.365999997       1.66747558
  0.377000004       2.64513922
  0.388000011       3.64882612
  0.398999989       4.64646673
  0.409999996       5.61113262
  0.421000004       6.51750422
  0.432000011       7.33204794
  0.442999989       8.02180004
  0.453999996       8.56341553
  0.465000004       8.93531132
  0.476000011       9.11544418
  0.486999989       9.09154892
  0.497999996       8.85970592
  0.509000003       8.41635227
  0.519999981       7.76567936
  0.531000018       6.92566681
  0.541999996       5.91776991
  0.552999973       4.76445103
  0.564000010       3.49767470
  0.574999988       2.15421820
  0.586000025      0.768222272
  0.597000003     -0.622075379
  0.607999980      -1.97387135
  0.619000018      -3.25133657
  0.629999995      -4.42565680
  0.640999973      -5.46721029
  0.652000010      -6.34911156
  0.662999988      -7.05412149
  0.674000025      -7.57285309
  0.685000002      -7.89992571
  0.695999980      -8.03519154
  0.707000017      -7.98735380
  0.717999995      -7.77180386
  0.728999972      -7.40378046
  0.740000010      -6.90089750
  0.750999987      -6.29032469
  0.762000024      -5.60099173
  0.773000002      -4.85434532
  0.783999979      -4.07316589
  0.795000017      -3.28509498
  0.805999994      -2.51090169
  0.816999972      -1.76626170
  0.828000009      -1.07061625
  0.838999987     -0.437946856
  0.850000024      0.127502784
  0.861000001      0.618924737
  0.871999979       1.02997398
  0.883000016       1.36456144
  0.893999994       1.62552607
  0.904999971       1.81114626
  0.916000009       1.93087924
  0.926999986       1.99816024
  0.938000023       2.01318693
  0.949000001       1.97899175
  0.959999979       1.91321468
  0.971000016       1.82468140
  0.981999993       1.71030247
  0.992999971       1.58008921
   1.00399995       1.44863760
   1.01499999       1.31306505
   1.02600002       1.17145514
   1.03699994       1.03716028
   1.04799998      0.914715707
   1.05900002      0.796368897
   1.07000005      0.685804844
   1.08099997      0.590434134
   1.09200001      0.504328012
   1.10300004      0.424845129
   1.11399996      0.359130144
   1.12500000      0.304308057
   1.13600004      0.253136486
   1.14699996      0.210429356
   1.15799999      0.177599415
   1.16900003      0.146121576
   1.17999995      0.118270434
   1.19099998      0.100524135
   1.20200002       8.38976204E-02
   1.21300006       6.31352514E-02
   1.22399998       4.93008532E-02
   1.23500001       4.24559154E-02
   1.24600005       3.04102823E-02
   1.25699997       1.75177418E-02
   1.26800001       1.34080257E-02
   1.27900004       9.37579758E-03
   1.28999996      -3.13367462E-04
   1.30100000      -5.00677573E-03
   1.31200004      -3.88150569E-03
   1.32299995      -7.30979536E-03
   1.33399999      -1.22296754E-02
   1.34500003      -1.14686294E-02
   1.35599995      -1.08792549E-02
   1.36699998      -1.32318884E-02
   1.37800002      -1.20837307E-02
   1.38900006      -9.32929199E-03
