 -0.800000012       0.00000000
 -0.788999975       0.00000000
 -0.777999997       0.00000000
 -0.767000020       0.00000000
 -0.755999982      -3.20105742E-16
 -0.745000005      -4.83909764E-16
 -0.734000027       3.35360884E-15
 -0.722999990      -1.09554970E-14
 -0.712000012      -1.02596434E-14
 -0.700999975       1.02552642E-14
 -0.689999998       5.87794312E-14
 -0.679000020      -7.09740833E-14
 -0.667999983      -6.66832786E-14
 -0.657000005       1.67683575E-13
 -0.646000028      -3.00924480E-14
 -0.634999990       2.02135451E-14
 -0.624000013       2.78588323E-13
 -0.612999976      -2.31290871E-13
 -0.601999998      -9.17228316E-13
 -0.591000021       1.57416343E-13
 -0.579999983       1.82425689E-12
 -0.569000006       3.38055240E-13
 -0.558000028      -1.59629482E-12
 -0.546999991      -1.14585652E-12
 -0.536000013       2.24955558E-12
 -0.524999976       5.67697842E-12
 -0.513999999      -7.54110229E-12
 -0.503000021      -1.59255838E-11
 -0.492000014       1.57671827E-11
 -0.481000006       2.37080997E-11
 -0.469999999      -1.70710928E-11
 -0.458999991      -1.74529349E-11
 -0.448000014       4.16088795E-11
 -0.437000006      -5.98856945E-12
 -0.425999999      -1.11717240E-10
 -0.414999992      -5.53585389E-12
 -0.404000014       1.64538633E-10
 -0.393000007       8.17935372E-11
 -0.381999999      -1.08571138E-10
 -0.370999992      -9.07389858E-11
 -0.360000014       3.10635372E-11
 -0.349000007       7.29676528E-11
 -0.338000000      -7.73837938E-11
 -0.326999992      -5.56547919E-10
 -0.316000015       2.60148604E-11
 -0.305000007       1.76518411E-09
 -0.294000000       5.41965972E-10
 -0.282999992      -2.58857091E-09
 -0.272000015      -1.23147992E-09
 -0.261000007       1.91308214E-09
 -0.250000000       1.54416280E-09
 -0.238999993      -9.90339130E-11
 -0.228000000      -1.75657133E-09
 -0.216999993      -1.51293622E-09
 -0.206000000       2.19706076E-09
 -0.194999993       2.48986431E-09
 -0.184000000       2.46405230E-10
 -0.172999993      -8.82573514E-10
 -0.162000000      -6.85462576E-09
 -0.150999993      -8.00818878E-09
 -0.140000001       9.07967035E-09
 -0.128999993       1.62683218E-08
 -0.118000001      -2.25802399E-09
 -0.107000001      -1.51791895E-08
  -9.60000008E-02  -8.13804313E-09
  -8.50000009E-02   7.19614945E-09
  -7.40000010E-02   2.14486402E-08
  -6.30000010E-02   2.46338883E-09
  -5.20000011E-02  -3.12723358E-08
  -4.10000011E-02  -4.82611906E-09
  -2.99999993E-02   4.15824104E-08
  -1.89999994E-02   1.45007926E-08
  -8.00000038E-03  -3.50015483E-08
   3.00000003E-03  -2.31419079E-08
   1.40000004E-02   1.22529364E-08
   2.50000004E-02   2.43092497E-08
   3.59999985E-02   6.01235817E-09
   4.69999984E-02  -1.82502813E-08
   5.79999983E-02  -1.25530653E-08
   6.89999983E-02   2.02194705E-08
   7.99999982E-02   5.16768406E-09
   9.09999982E-02  -1.35553320E-08
  0.101999998      -2.51516430E-09
  0.112999998       9.76651982E-10
  0.123999998       1.82355802E-08
  0.135000005       4.09238199E-09
  0.145999998      -5.56133983E-08
  0.157000005      -3.31098597E-08
  0.167999998       8.53701039E-08
  0.179000005       6.19832647E-08
  0.189999998      -5.26598605E-08
  0.201000005      -5.08725684E-08
  0.211999997      -5.55497914E-09
  0.223000005       3.50424578E-08
  0.233999997       8.35068121E-08
  0.245000005       1.13450582E-08
  0.256000012      -1.51548520E-07
  0.266999990      -1.09377694E-07
  0.277999997       2.56227981E-08
  0.289000005       4.99619475E-08
  0.300000012       8.58392468E-08
  0.310999990       1.09129466E-07
  0.321999997      -5.95331677E-08
  0.333000004      -1.36939533E-07
  0.344000012       3.76578022E-08
  0.354999989       1.05789475E-07
  0.365999997       3.50700020E-08
  0.377000004      -2.12923386E-08
  0.388000011      -5.83807207E-08
  0.398999989       3.93174702E-08
  0.409999996       5.28396171E-08
  0.421000004      -2.06988311E-08
  0.432000011      -9.89574360E-08
  0.442999989      -1.13231749E-07
  0.453999996      -5.35570095E-08
  0.465000004       3.44386422E-08
  0.476000011       1.15091837E-07
  0.486999989       2.58195421E-08
  0.497999996      -5.82081370E-08
  0.509000003      -3.31478631E-08
  0.519999981       9.74409975E-09
  0.531000018      -4.70115964E-08
  0.541999996      -5.97125407E-08
  0.552999973       3.66744786E-08
  0.564000010       1.89703329E-07
  0.574999988       1.96931907E-07
  0.586000025      -1.70304915E-07
  0.597000003      -3.28806124E-07
  0.607999980       7.01950924E-08
  0.619000018       1.82053725E-07
  0.629999995       1.39425694E-07
  0.640999973       1.71926757E-07
  0.652000010      -1.22311619E-07
  0.662999988      -2.75469887E-07
  0.674000025       6.75122891E-08
  0.685000002       1.24663018E-07
  0.695999980      -1.28142929E-07
  0.707000017      -2.53640344E-08
  0.717999995       3.75557896E-08
  0.728999972      -1.51265851E-07
  0.740000010       2.07419131E-08
  0.750999987       1.35058926E-07
  0.762000024      -1.20369350E-07
  0.773000002      -1.33948141E-08
  0.783999979       2.08436774E-07
  0.795000017      -8.78995010E-08
  0.805999994      -1.93331815E-07
  0.816999972       1.23951750E-07
  0.828000009       8.61749356E-08
  0.838999987      -8.08816054E-08
  0.850000024       1.42925449E-08
  0.861000001       3.32886678E-08
  0.871999979      -2.29426327E-08
  0.883000016      -1.68777561E-08
  0.893999994      -2.53011265E-08
  0.904999971       5.70073269E-08
  0.916000009       6.33999875E-08
  0.926999986      -1.79457601E-07
  0.938000023      -7.94485828E-08
  0.949000001       2.47127758E-07
  0.959999979       3.22124838E-09
  0.971000016      -2.10266506E-07
  0.981999993       1.26405723E-07
  0.992999971       1.23489187E-07
   1.00399995      -9.53743182E-08
   1.01499999       7.05857275E-08
   1.02600002      -6.94774442E-08
   1.03699994      -3.39869274E-07
   1.04799998       1.34211845E-07
   1.05900002       3.80611198E-07
   1.07000005      -1.35556334E-07
   1.08099997      -1.15724319E-07
   1.09200001       2.18063377E-07
   1.10300004      -1.26277456E-07
   1.11399996      -2.98103288E-07
   1.12500000       7.86903129E-08
   1.13600004       1.61228300E-07
   1.14699996       1.02817296E-07
   1.15799999       1.32417469E-07
   1.16900003      -9.87543913E-08
   1.17999995      -1.52559963E-07
   1.19099998       9.82563861E-08
   1.20200002       3.11590185E-08
   1.21300006      -5.07871682E-08
   1.22399998       6.80657024E-08
   1.23500001      -1.22476777E-07
   1.24600005      -1.15653805E-07
   1.25699997       3.20467450E-07
   1.26800001       1.55541642E-07
   1.27900004      -2.44758752E-07
   1.28999996       2.88245836E-08
   1.30100000       5.26613313E-08
   1.31200004      -3.28276002E-07
   1.32299995       9.97405980E-09
   1.33399999       3.60395035E-07
   1.34500003      -6.93940194E-08
   1.35599995      -1.60174764E-07
   1.36699998       1.46397497E-07
   1.37800002      -6.19015381E-08
   1.38900006      -1.68404100E-07
