 -0.800000012       0.00000000
 -0.788999975       0.00000000
 -0.777999997       0.00000000
 -0.767000020       0.00000000
 -0.755999982       0.00000000
 -0.745000005      -7.27196555E-14
 -0.734000027      -1.59100988E-12
 -0.722999990       1.20139879E-11
 -0.712000012      -3.03572514E-11
 -0.700999975      -4.43463192E-12
 -0.689999998       1.71164902E-10
 -0.679000020      -2.42435544E-10
 -0.667999983      -3.38807843E-10
 -0.657000005       1.16123333E-09
 -0.646000028      -8.38448547E-11
 -0.634999990      -2.98083558E-09
 -0.624000013       2.29965402E-09
 -0.612999976       4.84670926E-09
 -0.601999998      -7.01557434E-09
 -0.591000021      -4.04980938E-09
 -0.579999983       1.19581474E-08
 -0.569000006      -3.95869559E-09
 -0.558000028      -9.75222214E-09
 -0.546999991       2.43877505E-08
 -0.536000013      -9.52031520E-09
 -0.524999976      -5.96991327E-08
 -0.513999999       4.74520547E-08
 -0.503000021       1.00073123E-07
 -0.492000014      -8.56604885E-08
 -0.481000006      -1.08214763E-07
 -0.469999999       9.61603206E-08
 -0.458999991       2.18259366E-08
 -0.448000014      -8.34217531E-08
 -0.437000006       1.83430032E-07
 -0.425999999       9.89261011E-08
 -0.414999992      -3.95121191E-07
 -0.404000014      -1.41935189E-07
 -0.393000007       3.99927330E-07
 -0.381999999       4.62806504E-08
 -0.370999992      -1.58002862E-07
 -0.360000014       3.18179843E-07
 -0.349000007      -9.66187486E-08
 -0.338000000      -6.86189992E-07
 -0.326999992       3.38981010E-07
 -0.316000015       8.33652734E-07
 -0.305000007      -6.70932479E-07
 -0.294000000      -1.09396876E-06
 -0.282999992      -6.30495336E-08
 -0.272000015      -7.01595809E-07
 -0.261000007      -1.67863539E-06
 -0.250000000      -7.67490576E-07
 -0.238999993      -1.08773065E-06
 -0.228000000      -3.54287317E-06
 -0.216999993      -4.22421544E-06
 -0.206000000      -3.80070446E-06
 -0.194999993      -5.75108652E-06
 -0.184000000      -8.43895032E-06
 -0.172999993      -1.04619276E-05
 -0.162000000      -1.42166919E-05
 -0.150999993      -1.91340550E-05
 -0.140000001      -2.36423512E-05
 -0.128999993      -3.05176181E-05
 -0.118000001      -4.04835337E-05
 -0.107000001      -5.07290133E-05
  -9.60000008E-02  -6.30486466E-05
  -8.50000009E-02  -8.05447926E-05
  -7.40000010E-02  -1.00803525E-04
  -6.30000010E-02  -1.22748766E-04
  -5.20000011E-02  -1.49771426E-04
  -4.10000011E-02  -1.81903291E-04
  -2.99999993E-02  -2.17112276E-04
  -1.89999994E-02  -2.57314794E-04
  -8.00000038E-03  -3.03396315E-04
   3.00000003E-03  -3.52143281E-04
   1.40000004E-02  -4.02411650E-04
   2.50000004E-02  -4.55164409E-04
   3.59999985E-02  -5.08040597E-04
   4.69999984E-02  -5.56601211E-04
   5.79999983E-02  -5.97450009E-04
   6.89999983E-02  -6.26755296E-04
   7.99999982E-02  -6.38328784E-04
   9.09999982E-02  -6.23716624E-04
  0.101999998      -5.73939236E-04
  0.112999998      -4.80555784E-04
  0.123999998      -3.33004718E-04
  0.135000005      -1.17904521E-04
  0.145999998       1.76692542E-04
  0.157000005       5.61828027E-04
  0.167999998       1.05152267E-03
  0.179000005       1.65860390E-03
  0.189999998       2.39059655E-03
  0.201000005       3.25437333E-03
  0.211999997       4.25600121E-03
  0.223000005       5.39349671E-03
  0.233999997       6.65717106E-03
  0.245000005       8.03267490E-03
  0.256000012       9.49631445E-03
  0.266999990       1.10121490E-02
  0.277999997       1.25337858E-02
  0.289000005       1.40017113E-02
  0.300000012       1.53412307E-02
  0.310999990       1.64655074E-02
  0.321999997       1.72743630E-02
  0.333000004       1.76511724E-02
  0.344000012       1.74668822E-02
  0.354999989       1.65834259E-02
  0.365999997       1.48525387E-02
  0.377000004       1.21201836E-02
  0.388000011       8.23404174E-03
  0.398999989       3.04479152E-03
  0.409999996      -3.59090883E-03
  0.421000004      -1.17991343E-02
  0.432000011      -2.16795132E-02
  0.442999989      -3.33022177E-02
  0.453999996      -4.67016771E-02
  0.465000004      -6.18655942E-02
  0.476000011      -7.87269846E-02
  0.486999989      -9.71597955E-02
  0.497999996     -0.116972469
  0.509000003     -0.137901530
  0.519999981     -0.159610763
  0.531000018     -0.181692898
  0.541999996     -0.203669488
  0.552999973     -0.224994496
  0.564000010     -0.245065257
  0.574999988     -0.263234317
  0.586000025     -0.278822660
  0.597000003     -0.291138738
  0.607999980     -0.299499601
  0.619000018     -0.303251296
  0.629999995     -0.301795036
  0.640999973     -0.294615954
  0.652000010     -0.281305641
  0.662999988     -0.261584044
  0.674000025     -0.235324517
  0.685000002     -0.202571616
  0.695999980     -0.163550600
  0.707000017     -0.118677400
  0.717999995      -6.85624480E-02
  0.728999972      -1.40009467E-02
  0.740000010       4.40420583E-02
  0.750999987      0.104449444
  0.762000024      0.165980607
  0.773000002      0.227308139
  0.783999979      0.287054449
  0.795000017      0.343833596
  0.805999994      0.396297932
  0.816999972      0.443182588
  0.828000009      0.483346999
  0.838999987      0.515815854
  0.850000024      0.539812803
  0.861000001      0.554784179
  0.871999979      0.560419202
  0.883000016      0.556663036
  0.893999994      0.543713689
  0.904999971      0.522008777
  0.916000009      0.492211640
  0.926999986      0.455188721
  0.938000023      0.411972284
  0.949000001      0.363720089
  0.959999979      0.311678112
  0.971000016      0.257137686
  0.981999993      0.201389089
  0.992999971      0.145682424
   1.00399995       9.11946595E-02
   1.01499999       3.89953069E-02
   1.02600002      -9.98346042E-03
   1.03699994      -5.49634062E-02
   1.04799998      -9.53285843E-02
   1.05900002     -0.130633816
   1.07000005     -0.160607517
   1.08099997     -0.185141787
   1.09200001     -0.204276159
   1.10300004     -0.218183011
   1.11399996     -0.227151304
   1.12500000     -0.231564090
   1.13600004     -0.231874138
   1.14699996     -0.228582501
   1.15799999     -0.222218767
   1.16900003     -0.213320807
   1.17999995     -0.202416241
   1.19099998     -0.190007672
   1.20200002     -0.176562369
   1.21300006     -0.162505001
   1.22399998     -0.148210078
   1.23500001     -0.133997291
   1.24600005     -0.120132454
   1.25699997     -0.106829576
   1.26800001      -9.42509919E-02
   1.27900004      -8.25114325E-02
   1.28999996      -7.16860741E-02
   1.30100000      -6.18149862E-02
   1.31200004      -5.29061742E-02
   1.32299995      -4.49437127E-02
   1.33399999      -3.78950164E-02
   1.34500003      -3.17120738E-02
   1.35599995      -2.63343304E-02
   1.36699998      -2.16958281E-02
   1.37800002      -1.77289490E-02
   1.38900006      -1.43652307E-02
