 -0.800000012       0.00000000
 -0.788999975       0.00000000
 -0.777999997       0.00000000
 -0.767000020      -1.55922169E-06
 -0.755999982       5.96231030E-06
 -0.745000005       3.74946612E-05
 -0.734000027      -1.55634480E-04
 -0.722999990      -7.34048081E-06
 -0.712000012       6.48222107E-04
 -0.700999975      -4.64937446E-04
 -0.689999998      -1.37957558E-03
 -0.679000020       1.80946430E-03
 -0.667999983       1.65566755E-03
 -0.657000005      -3.87346721E-03
 -0.646000028      -5.81876317E-04
 -0.634999990       5.19255036E-03
 -0.624000013      -1.92205817E-03
 -0.612999976      -2.81746383E-03
 -0.601999998       4.71667945E-03
 -0.591000021      -6.12747669E-03
 -0.579999983      -6.43071067E-03
 -0.569000006       2.06281394E-02
 -0.558000028       5.89109818E-03
 -0.546999991      -3.35041918E-02
 -0.536000013      -1.15765166E-03
 -0.524999976       3.60166244E-02
 -0.513999999      -8.18865094E-03
 -0.503000021      -2.46145818E-02
 -0.492000014       1.61998756E-02
 -0.481000006      -4.09482484E-04
 -0.469999999      -1.73947532E-02
 -0.458999991       3.31546701E-02
 -0.448000014       1.81188788E-02
 -0.437000006      -4.53527309E-02
 -0.425999999      -5.19495504E-03
 -0.414999992       3.77702713E-02
 -0.404000014      -4.43420839E-03
 -0.393000007       9.84751619E-03
 -0.381999999       4.32299748E-02
 -0.370999992      -2.03862600E-02
 -0.360000014      -2.05944944E-02
 -0.349000007       7.37318397E-02
 -0.338000000       5.30664623E-02
 -0.326999992       2.63566588E-04
 -0.316000015       7.38892555E-02
 -0.305000007      0.100814417
 -0.294000000       5.04525080E-02
 -0.282999992      0.127384290
 -0.272000015      0.229524314
 -0.261000007      0.196130782
 -0.250000000      0.208850205
 -0.238999993      0.341281742
 -0.228000000      0.419926375
 -0.216999993      0.469953865
 -0.206000000      0.607351899
 -0.194999993      0.751026213
 -0.184000000      0.858607709
 -0.172999993       1.02258372
 -0.162000000       1.23882020
 -0.150999993       1.43890882
 -0.140000001       1.65207636
 -0.128999993       1.92161000
 -0.118000001       2.19564819
 -0.107000001       2.43324232
  -9.60000008E-02   2.69838715
  -8.50000009E-02   3.00315928
  -7.40000010E-02   3.24447870
  -6.30000010E-02   3.43891740
  -5.20000011E-02   3.66889644
  -4.10000011E-02   3.80961967
  -2.99999993E-02   3.78219867
  -1.89999994E-02   3.74433208
  -8.00000038E-03   3.65829110
   3.00000003E-03   3.32762647
   1.40000004E-02   2.84950709
   2.50000004E-02   2.29645205
   3.59999985E-02   1.48302138
   4.69999984E-02  0.453290224
   5.79999983E-02 -0.656773508
   6.89999983E-02  -2.01574206
   7.99999982E-02  -3.63343072
   9.09999982E-02  -5.30429983
  0.101999998      -7.13482332
  0.112999998      -9.17549706
  0.123999998      -11.1648674
  0.135000005      -13.1503525
  0.145999998      -15.2597237
  0.157000005      -17.1765862
  0.167999998      -18.7955914
  0.179000005      -20.3390808
  0.189999998      -21.5985317
  0.201000005      -22.3256187
  0.211999997      -22.7061119
  0.223000005      -22.6656513
  0.233999997      -21.9283600
  0.245000005      -20.6428432
  0.256000012      -18.8694839
  0.266999990      -16.3773518
  0.277999997      -13.2927818
  0.289000005      -9.77325344
  0.300000012      -5.60982513
  0.310999990     -0.902879775
  0.321999997       4.01101875
  0.333000004       9.22726822
  0.344000012       14.7586145
  0.354999989       20.2069111
  0.365999997       25.4813824
  0.377000004       30.6969223
  0.388000011       35.5454788
  0.398999989       39.7176323
  0.409999996       43.2848434
  0.421000004       46.1609421
  0.432000011       48.0356445
  0.442999989       48.8505592
  0.453999996       48.6875191
  0.465000004       47.4148293
  0.476000011       44.9042206
  0.486999989       41.2988892
  0.497999996       36.7004356
  0.509000003       31.0282326
  0.519999981       24.4349861
  0.531000018       17.2522469
  0.541999996       9.51778126
  0.552999973       1.31920099
  0.564000010      -6.86471415
  0.574999988      -14.8357372
  0.586000025      -22.6605492
  0.597000003      -29.8955097
  0.607999980      -36.1226959
  0.619000018      -41.5310135
  0.629999995      -45.9721642
  0.640999973      -48.9316559
  0.652000010      -50.5837250
  0.662999988      -51.1712265
  0.674000025      -50.3012772
  0.685000002      -48.0220757
  0.695999980      -44.8580284
  0.707000017      -40.7117386
  0.717999995      -35.5023766
  0.728999972      -29.8073292
  0.740000010      -23.8173256
  0.750999987      -17.3829746
  0.762000024      -10.9580183
  0.773000002      -4.93135500
  0.783999979      0.876464844
  0.795000017       6.29523563
  0.805999994       10.8930149
  0.816999972       14.7753944
  0.828000009       18.0559292
  0.838999987       20.4490833
  0.850000024       21.9523296
  0.861000001       22.8327312
  0.871999979       23.0431633
  0.883000016       22.5046558
  0.893999994       21.4557953
  0.904999971       20.0648670
  0.916000009       18.2866859
  0.926999986       16.2154751
  0.938000023       14.0759268
  0.949000001       11.9071188
  0.959999979       9.67199993
  0.971000016       7.53133535
  0.981999993       5.62038183
  0.992999971       3.83667946
   1.00399995       2.18561244
   1.01499999      0.841955602
   1.02600002     -0.256421745
   1.03699994      -1.24413192
   1.04799998      -1.98386574
   1.05900002      -2.44508147
   1.07000005      -2.83067918
   1.08099997      -3.09849191
   1.09200001      -3.12634563
   1.10300004      -3.09556627
   1.11399996      -3.07338285
   1.12500000      -2.88902950
   1.13600004      -2.63714385
   1.14699996      -2.48087478
   1.15799999      -2.26276851
   1.16900003      -1.94458282
   1.17999995      -1.73577511
   1.19099998      -1.58088481
   1.20200002      -1.32171547
   1.21300006      -1.10332823
   1.22399998      -1.00115895
   1.23500001     -0.841279328
   1.24600005     -0.648303866
   1.25699997     -0.572847068
   1.26800001     -0.510552526
   1.27900004     -0.374251276
   1.28999996     -0.304092318
   1.30100000     -0.295617521
   1.31200004     -0.211057633
   1.32299995     -0.135577485
   1.33399999     -0.154990241
   1.34500003     -0.127636597
   1.35599995      -4.87318859E-02
   1.36699998      -6.66726455E-02
   1.37800002      -9.35210139E-02
   1.38900006      -2.22118534E-02
