 -0.959999979       0.00000000
 -0.925000012       0.00000000
 -0.889999986       3.07478535E-24
 -0.855000019       6.42743991E-09
 -0.819999993       1.02968166E-07
 -0.785000026       2.40418785E-07
 -0.750000000       2.50851400E-07
 -0.714999974       4.90146192E-07
 -0.680000007       1.62888603E-06
 -0.644999981       3.63728850E-06
 -0.610000014       6.36297091E-06
 -0.574999988       1.08772001E-05
 -0.540000021       1.89035345E-05
 -0.504999995       3.17296035E-05
 -0.469999999       5.02780349E-05
 -0.435000002       7.46419537E-05
 -0.400000006       1.03530911E-04
 -0.365000010       1.35427064E-04
 -0.330000013       1.69157225E-04
 -0.294999987       2.03676202E-04
 -0.259999990       2.42660826E-04
 -0.224999994       3.04884656E-04
 -0.189999998       4.35725407E-04
 -0.155000001       7.20548385E-04
 -0.119999997       1.30208058E-03
  -8.50000009E-02   2.39459146E-03
  -5.00000007E-02   4.28378768E-03
  -1.49999997E-02   7.30203046E-03
   1.99999996E-02   1.17639061E-02
   5.49999997E-02   1.78512558E-02
   9.00000036E-02   2.54581850E-02
  0.125000000       3.40298489E-02
  0.159999996       4.24503796E-02
  0.194999993       4.90534715E-02
  0.230000004       5.18142022E-02
  0.264999986       4.87213098E-02
  0.300000012       3.82611454E-02
  0.335000008       1.98932830E-02
  0.370000005      -5.62869990E-03
  0.405000001      -3.62084769E-02
  0.439999998      -6.86535537E-02
  0.474999994      -9.91432965E-02
  0.509999990     -0.123797603
  0.545000017     -0.139223322
  0.579999983     -0.142951459
  0.615000010     -0.133742318
  0.649999976     -0.111774139
  0.685000002      -7.87135884E-02
  0.720000029      -3.76350284E-02
  0.754999995       7.25221541E-03
  0.790000021       5.10917939E-02
  0.824999988       8.90515149E-02
  0.860000014      0.117061757
  0.894999981      0.132451668
  0.930000007      0.134327769
  0.964999974      0.123605631
   1.00000000      0.102703638
   1.03499997       7.50109553E-02
   1.07000005       4.42924276E-02
   1.10500002       1.41671831E-02
   1.13999999      -1.22721735E-02
   1.17499995      -3.27055268E-02
   1.21000004      -4.57442999E-02
   1.24500000      -5.10331877E-02
   1.27999997      -4.92637344E-02
   1.31500006      -4.20324467E-02
   1.35000002      -3.15071233E-02
   1.38499999      -1.99505314E-02
   1.41999996      -9.24084056E-03
   1.45500004      -5.61790366E-04
   1.49000001       5.63140167E-03
   1.52499998       9.40494705E-03
   1.55999994       1.10550523E-02
   1.59500003       1.09098628E-02
   1.63000000       9.31026135E-03
