 -0.800000012       0.00000000
 -0.788999975       0.00000000
 -0.777999997       0.00000000
 -0.767000020       1.28862509E-26
 -0.755999982      -1.30535851E-11
 -0.745000005       6.25098653E-11
 -0.734000027      -2.54223420E-10
 -0.722999990       4.68938610E-10
 -0.712000012       5.05171904E-10
 -0.700999975      -3.56243945E-09
 -0.689999998       3.95571886E-09
 -0.679000020       7.21774596E-09
 -0.667999983      -2.33126176E-08
 -0.657000005       6.26162366E-09
 -0.646000028       6.15046787E-08
 -0.634999990      -7.16299695E-08
 -0.624000013      -9.81995356E-08
 -0.612999976       2.00308023E-07
 -0.601999998       1.02556655E-07
 -0.591000021      -2.78603380E-07
 -0.579999983      -1.19522070E-07
 -0.569000006      -7.48072182E-08
 -0.558000028       3.75729485E-07
 -0.546999991       1.59406875E-06
 -0.536000013      -1.18637058E-06
 -0.524999976      -5.16413047E-06
 -0.513999999       2.42318788E-06
 -0.503000021       1.09521525E-05
 -0.492000014      -2.82992960E-06
 -0.481000006      -1.67532016E-05
 -0.469999999       4.60861145E-07
 -0.458999991       1.67293983E-05
 -0.448000014       4.34211915E-06
 -0.437000006      -3.82202552E-06
 -0.425999999      -5.18018123E-06
 -0.414999992      -2.14486208E-05
 -0.404000014      -7.05249795E-06
 -0.393000007       4.28271851E-05
 -0.381999999       2.82816800E-05
 -0.370999992      -4.18867494E-05
 -0.360000014      -3.68738110E-05
 -0.349000007       2.79782707E-05
 -0.338000000       3.45857879E-05
 -0.326999992      -8.37373409E-06
 -0.316000015      -4.48863502E-05
 -0.305000007      -6.49617796E-05
 -0.294000000      -3.83660372E-05
 -0.282999992      -1.19161768E-05
 -0.272000015      -9.50049289E-05
 -0.261000007      -1.87735510E-04
 -0.250000000      -1.37992640E-04
 -0.238999993      -1.13909278E-04
 -0.228000000      -2.93443474E-04
 -0.216999993      -4.97215544E-04
 -0.206000000      -5.82787150E-04
 -0.194999993      -6.93201728E-04
 -0.184000000      -9.09759721E-04
 -0.172999993      -1.22343411E-03
 -0.162000000      -1.72262394E-03
 -0.150999993      -2.36278144E-03
 -0.140000001      -2.97092926E-03
 -0.128999993      -3.67202307E-03
 -0.118000001      -4.74884314E-03
 -0.107000001      -6.18973002E-03
  -9.60000008E-02  -7.88357109E-03
  -8.50000009E-02  -9.91008431E-03
  -7.40000010E-02  -1.23557802E-02
  -6.30000010E-02  -1.52938263E-02
  -5.20000011E-02  -1.89092476E-02
  -4.10000011E-02  -2.32649222E-02
  -2.99999993E-02  -2.82733981E-02
  -1.89999994E-02  -3.40649076E-02
  -8.00000038E-03  -4.08859365E-02
   3.00000003E-03  -4.87355329E-02
   1.40000004E-02  -5.75576872E-02
   2.50000004E-02  -6.74400702E-02
   3.59999985E-02  -7.83795938E-02
   4.69999984E-02  -9.03266370E-02
   5.79999983E-02 -0.103364229
   6.89999983E-02 -0.117382467
   7.99999982E-02 -0.131964877
   9.09999982E-02 -0.146858826
  0.101999998     -0.161985055
  0.112999998     -0.176988840
  0.123999998     -0.191320598
  0.135000005     -0.204485476
  0.145999998     -0.215887740
  0.157000005     -0.224857330
  0.167999998     -0.230861455
  0.179000005     -0.233303308
  0.189999998     -0.231387332
  0.201000005     -0.224439785
  0.211999997     -0.211979568
  0.223000005     -0.193492830
  0.233999997     -0.168551207
  0.245000005     -0.136980414
  0.256000012      -9.86933038E-02
  0.266999990      -5.36869578E-02
  0.277999997      -2.28351168E-03
  0.289000005       5.49177751E-02
  0.300000012      0.117232338
  0.310999990      0.183811560
  0.321999997      0.253556699
  0.333000004      0.325254560
  0.344000012      0.397620142
  0.354999989      0.469195008
  0.365999997      0.538446248
  0.377000004      0.603976071
  0.388000011      0.664480209
  0.398999989      0.718655288
  0.409999996      0.765356302
  0.421000004      0.803675354
  0.432000011      0.832786977
  0.442999989      0.852005661
  0.453999996      0.860982418
  0.465000004      0.859576762
  0.476000011      0.847690523
  0.486999989      0.825370491
  0.497999996      0.792787075
  0.509000003      0.750090003
  0.519999981      0.697508097
  0.531000018      0.635381877
  0.541999996      0.563937724
  0.552999973      0.483294010
  0.564000010      0.393665016
  0.574999988      0.295318067
  0.586000025      0.188501373
  0.597000003       7.35760778E-02
  0.607999980      -4.89214025E-02
  0.619000018     -0.178288266
  0.629999995     -0.313540190
  0.640999973     -0.453323096
  0.652000010     -0.595925570
  0.662999988     -0.739271283
  0.674000025     -0.880938292
  0.685000002      -1.01818919
  0.695999980      -1.14795208
  0.707000017      -1.26688635
  0.717999995      -1.37155902
  0.728999972      -1.45859182
  0.740000010      -1.52479613
  0.750999987      -1.56732142
  0.762000024      -1.58375311
  0.773000002      -1.57223654
  0.783999979      -1.53165245
  0.795000017      -1.46172440
  0.805999994      -1.36308217
  0.816999972      -1.23730206
  0.828000009      -1.08683813
  0.838999987     -0.914933026
  0.850000024     -0.725581527
  0.861000001     -0.523413062
  0.871999979     -0.313500375
  0.883000016     -0.101184160
  0.893999994      0.108145028
  0.904999971      0.309280008
  0.916000009      0.497352004
  0.926999986      0.667962849
  0.938000023      0.817331254
  0.949000001      0.942460835
  0.959999979       1.04131210
  0.971000016       1.11280370
  0.981999993       1.15665650
  0.992999971       1.17338991
   1.00399995       1.16439164
   1.01499999       1.13175905
   1.02600002       1.07813549
   1.03699994       1.00668013
   1.04799998      0.920844793
   1.05900002      0.824106932
   1.07000005      0.719977975
   1.08099997      0.611940563
   1.09200001      0.503184438
   1.10300004      0.396553814
   1.11399996      0.294573337
   1.12500000      0.199279204
   1.13600004      0.112212144
   1.14699996       3.45769972E-02
   1.15799999      -3.28513645E-02
   1.16900003      -8.98248404E-02
   1.17999995     -0.136433378
   1.19099998     -0.173022255
   1.20200002     -0.200249583
   1.21300006     -0.218921751
   1.22399998     -0.229860291
   1.23500001     -0.234042451
   1.24600005     -0.232599154
   1.25699997     -0.226592660
   1.26800001     -0.216973215
   1.27900004     -0.204646513
   1.28999996     -0.190416187
   1.30100000     -0.174969763
   1.31200004     -0.158936054
   1.32299995     -0.142828867
   1.33399999     -0.127017766
   1.34500003     -0.111831985
   1.35599995      -9.75519791E-02
   1.36699998      -8.43097195E-02
   1.37800002      -7.21635148E-02
   1.38900006      -6.11894950E-02
