 -0.959999979       0.00000000
 -0.925000012       0.00000000
 -0.889999986       1.00018904E-09
 -0.855000019       1.90623695E-09
 -0.819999993      -5.94317928E-09
 -0.785000026      -9.65386526E-09
 -0.750000000      -3.13438129E-08
 -0.714999974      -6.68801476E-08
 -0.680000007       4.92298511E-07
 -0.644999981      -3.70305457E-07
 -0.610000014      -5.27677571E-07
 -0.574999988       1.04567414E-06
 -0.540000021      -8.68728307E-07
 -0.504999995       5.10269183E-06
 -0.469999999      -1.10095671E-05
 -0.435000002       8.76466686E-07
 -0.400000006       1.99109691E-05
 -0.365000010      -1.73198132E-05
 -0.330000013      -3.43769607E-05
 -0.294999987       6.34591561E-05
 -0.259999990      -4.55099462E-06
 -0.224999994      -8.38127089E-05
 -0.189999998       1.27610940E-04
 -0.155000001      -3.80060810E-05
 -0.119999997      -1.19393022E-04
  -8.50000009E-02   1.29868902E-04
  -5.00000007E-02   3.30146468E-05
  -1.49999997E-02  -1.48239313E-04
   1.99999996E-02   1.22125948E-05
   5.49999997E-02   2.31970058E-04
   9.00000036E-02  -3.06414644E-04
  0.125000000       7.69964972E-05
  0.159999996       2.35014915E-04
  0.194999993      -2.18465342E-04
  0.230000004       1.50231599E-05
  0.264999986       5.76264829E-05
  0.300000012      -6.15214376E-05
  0.335000008       4.72117754E-05
  0.370000005      -1.02350605E-05
  0.405000001      -3.96152063E-05
  0.439999998       1.20718141E-04
  0.474999994      -9.48646993E-05
  0.509999990      -7.87527169E-05
  0.545000017       1.92412786E-04
  0.579999983      -9.92774003E-05
  0.615000010      -1.71688152E-04
  0.649999976       2.42863403E-04
  0.685000002       8.63273090E-05
  0.720000029      -3.41798150E-04
  0.754999995       1.54944850E-04
  0.790000021       2.92266835E-04
  0.824999988      -3.43533728E-04
  0.860000014      -1.40559539E-04
  0.894999981       3.27188405E-04
  0.930000007      -1.16434364E-06
  0.964999974      -1.73032153E-04
   1.00000000       5.55128390E-05
   1.03499997       1.13063843E-05
   1.07000005      -8.09785888E-06
   1.10500002       1.99461538E-05
   1.13999999      -5.24430725E-05
   1.17499995       5.99569175E-05
   1.21000004       4.79917981E-05
   1.24500000      -1.61348711E-04
   1.27999997       1.65742440E-05
   1.31500006       1.71354768E-04
   1.35000002      -9.51077163E-05
   1.38499999      -4.88673941E-05
   1.41999996       1.39069030E-04
   1.45500004      -7.18952579E-05
   1.49000001      -1.00859383E-04
   1.52499998       9.11038078E-05
   1.55999994      -1.12505040E-05
   1.59500003      -1.02166914E-05
   1.63000000       1.01910249E-04
