 -0.800000012       0.00000000
 -0.788999975       0.00000000
 -0.777999997       4.60576302E-07
 -0.767000020      -5.79921016E-06
 -0.755999982       8.85847476E-06
 -0.745000005       5.43655187E-05
 -0.734000027      -1.00753365E-04
 -0.722999990      -1.59679068E-04
 -0.712000012       3.93759547E-04
 -0.700999975       2.18424902E-04
 -0.689999998      -9.29602305E-04
 -0.679000020      -9.81592621E-07
 -0.667999983       1.59216684E-03
 -0.657000005      -5.58445987E-04
 -0.646000028      -2.02727783E-03
 -0.634999990       9.64701409E-04
 -0.624000013       1.43218809E-03
 -0.612999976      -4.19335585E-04
 -0.601999998       1.39837945E-03
 -0.591000021      -8.14970059E-04
 -0.579999983      -6.47955993E-03
 -0.569000006       1.32326339E-03
 -0.558000028       1.14245992E-02
 -0.546999991      -3.75295727E-04
 -0.536000013      -1.34521779E-02
 -0.524999976      -2.00334121E-03
 -0.513999999       1.15294298E-02
 -0.503000021       7.27463514E-03
 -0.492000014      -2.57438049E-03
 -0.481000006      -1.20042628E-02
 -0.469999999      -1.38661657E-02
 -0.458999991       5.53212175E-03
 -0.448000014       2.24106889E-02
 -0.437000006       5.01516974E-03
 -0.425999999      -2.18449105E-02
 -0.414999992      -2.22968794E-02
 -0.404000014      -6.09460380E-03
 -0.393000007       6.35391381E-03
 -0.381999999       5.56133222E-03
 -0.370999992      -1.56512447E-02
 -0.360000014      -3.90799828E-02
 -0.349000007      -3.62051055E-02
 -0.338000000      -2.04776879E-02
 -0.326999992      -2.37760954E-02
 -0.316000015      -4.88930047E-02
 -0.305000007      -8.82258043E-02
 -0.294000000     -0.130771816
 -0.282999992     -0.147231042
 -0.272000015     -0.140177667
 -0.261000007     -0.168885246
 -0.250000000     -0.257718354
 -0.238999993     -0.353940815
 -0.228000000     -0.422089934
 -0.216999993     -0.489220709
 -0.206000000     -0.582691729
 -0.194999993     -0.709908187
 -0.184000000     -0.876669228
 -0.172999993      -1.06384993
 -0.162000000      -1.24053204
 -0.150999993      -1.42235959
 -0.140000001      -1.64784980
 -0.128999993      -1.91371191
 -0.118000001      -2.18953490
 -0.107000001      -2.45762491
  -9.60000008E-02  -2.71678853
  -8.50000009E-02  -2.97683239
  -7.40000010E-02  -3.23558211
  -6.30000010E-02  -3.46613574
  -5.20000011E-02  -3.64965200
  -4.10000011E-02  -3.77641511
  -2.99999993E-02  -3.81948709
  -1.89999994E-02  -3.76636720
  -8.00000038E-03  -3.61678290
   3.00000003E-03  -3.32774377
   1.40000004E-02  -2.86405325
   2.50000004E-02  -2.24975753
   3.59999985E-02  -1.47570550
   4.69999984E-02 -0.492110640
   5.79999983E-02  0.687943041
   6.89999983E-02   2.04330325
   7.99999982E-02   3.60353303
   9.09999982E-02   5.33659554
  0.101999998       7.16944695
  0.112999998       9.11512184
  0.123999998       11.1667967
  0.135000005       13.2139435
  0.145999998       15.1994333
  0.157000005       17.1149578
  0.167999998       18.8576260
  0.179000005       20.3272800
  0.189999998       21.5107479
  0.201000005       22.3385849
  0.211999997       22.6966839
  0.223000005       22.5613136
  0.233999997       21.9148388
  0.245000005       20.6749058
  0.256000012       18.8157425
  0.266999990       16.3690929
  0.277999997       13.3287134
  0.289000005       9.70614910
  0.300000012       5.57581282
  0.310999990       1.00009143
  0.321999997      -3.96654248
  0.333000004      -9.22318935
  0.344000012      -14.6507101
  0.354999989      -20.1285133
  0.365999997      -25.5127525
  0.377000004      -30.6538544
  0.388000011      -35.4161186
  0.398999989      -39.6671028
  0.409999996      -43.2711258
  0.421000004      -46.0920067
  0.432000011      -48.0031815
  0.442999989      -48.9057922
  0.453999996      -48.7274437
  0.465000004      -47.4153404
  0.476000011      -44.9589310
  0.486999989      -41.3875694
  0.497999996      -36.7408218
  0.509000003      -31.0891228
  0.519999981      -24.5645638
  0.531000018      -17.3288765
  0.541999996      -9.54756641
  0.552999973      -1.42296636
  0.564000010       6.80366087
  0.574999988       14.8991404
  0.586000025       22.6491985
  0.597000003       29.8284035
  0.607999980       36.2146683
  0.619000018       41.6312180
  0.629999995       45.9370232
  0.640999973       49.0061493
  0.652000010       50.7582016
  0.662999988       51.1823044
  0.674000025       50.3027382
  0.685000002       48.1720123
  0.695999980       44.9025459
  0.707000017       40.6447639
  0.717999995       35.5609436
  0.728999972       29.8428097
  0.740000010       23.7074356
  0.750999987       17.3607903
  0.762000024       11.0010939
  0.773000002       4.82931566
  0.783999979     -0.977575064
  0.795000017      -6.27515793
  0.805999994      -10.9365902
  0.816999972      -14.8707933
  0.828000009      -18.0365200
  0.838999987      -20.4163628
  0.850000024      -22.0071545
  0.861000001      -22.8400040
  0.871999979      -22.9754791
  0.883000016      -22.4862442
  0.893999994      -21.4609585
  0.904999971      -20.0066910
  0.916000009      -18.2287445
  0.926999986      -16.2159729
  0.938000023      -14.0554581
  0.949000001      -11.8431034
  0.959999979      -9.66109753
  0.971000016      -7.56312418
  0.981999993      -5.59754753
  0.992999971      -3.81381154
   1.00399995      -2.23325253
   1.01499999     -0.859236360
   1.02600002      0.288039833
   1.03699994       1.19937229
   1.04799998       1.90843368
   1.05900002       2.44696379
   1.07000005       2.81639695
   1.08099997       3.03070521
   1.09200001       3.12268758
   1.10300004       3.10918903
   1.11399996       3.00895929
   1.12500000       2.85996056
   1.13600004       2.68084526
   1.14699996       2.46840549
   1.15799999       2.23499346
   1.16900003       1.99881017
   1.17999995       1.76774287
   1.19099998       1.55456710
   1.20200002       1.36315751
   1.21300006       1.17796755
   1.22399998      0.999881268
   1.23500001      0.844453275
   1.24600005      0.708897531
   1.25699997      0.591740906
   1.26800001      0.500147402
   1.27900004      0.417237848
   1.28999996      0.329101175
   1.30100000      0.256437004
   1.31200004      0.206727862
   1.32299995      0.163192108
   1.33399999      0.127620459
   1.34500003       9.97325480E-02
   1.35599995       6.34306744E-02
   1.36699998       3.19740400E-02
   1.37800002       2.33313888E-02
   1.38900006       1.49473082E-02
