 -0.959999979       0.00000000
 -0.925000012       0.00000000
 -0.889999986      -9.98684939E-08
 -0.855000019      -1.17746663E-06
 -0.819999993      -9.42758220E-07
 -0.785000026       5.45697105E-07
 -0.750000000      -2.50904986E-06
 -0.714999974      -7.95559208E-06
 -0.680000007      -9.31297382E-06
 -0.644999981      -1.14667109E-05
 -0.610000014      -1.61721000E-05
 -0.574999988      -1.09646726E-05
 -0.540000021       1.61355947E-05
 -0.504999995       8.47708798E-05
 -0.469999999       2.36324471E-04
 -0.435000002       5.16815810E-04
 -0.400000006       9.76170122E-04
 -0.365000010       1.68152770E-03
 -0.330000013       2.69367453E-03
 -0.294999987       4.05880809E-03
 -0.259999990       5.85642690E-03
 -0.224999994       8.25180579E-03
 -0.189999998       1.15653928E-02
 -0.155000001       1.63810737E-02
 -0.119999997       2.35810727E-02
  -8.50000009E-02   3.42056975E-02
  -5.00000007E-02   4.91187908E-02
  -1.49999997E-02   6.84422925E-02
   1.99999996E-02   9.08219516E-02
   5.49999997E-02  0.112803295
   9.00000036E-02  0.128653631
  0.125000000      0.130910873
  0.159999996      0.111847952
  0.194999993       6.57385588E-02
  0.230000004      -8.62184912E-03
  0.264999986     -0.105944313
  0.300000012     -0.213864535
  0.335000008     -0.314382374
  0.370000005     -0.387363881
  0.405000001     -0.415351570
  0.439999998     -0.388338178
  0.474999994     -0.306977272
  0.509999990     -0.183037549
  0.545000017      -3.68059166E-02
  0.579999983      0.107745782
  0.615000010      0.228469834
  0.649999976      0.309530497
  0.685000002      0.343681753
  0.720000029      0.332131147
  0.754999995      0.282708943
  0.790000021      0.207406327
  0.824999988      0.120115094
  0.860000014       3.48507576E-02
  0.894999981      -3.58052626E-02
  0.930000007      -8.24122801E-02
  0.964999974     -0.100462608
   1.00000000      -9.16483700E-02
   1.03499997      -6.37640506E-02
   1.07000005      -2.86983643E-02
   1.10500002       1.19407137E-03
   1.13999999       1.71097182E-02
   1.17499995       1.65680610E-02
   1.21000004       3.68646299E-03
   1.24500000      -1.32456990E-02
   1.27999997      -2.57972442E-02
   1.31500006      -2.91343443E-02
   1.35000002      -2.37535443E-02
   1.38499999      -1.44845378E-02
   1.41999996      -7.38978432E-03
   1.45500004      -6.27123052E-03
   1.49000001      -1.06398715E-02
   1.52499998      -1.61445700E-02
   1.55999994      -1.71603262E-02
   1.59500003      -1.01181297E-02
   1.63000000       4.24497668E-03
