 -0.959999979       0.00000000
 -0.925000012       0.00000000
 -0.889999986       1.34920644E-10
 -0.855000019      -5.07936526E-10
 -0.819999993       4.19047641E-09
 -0.785000026      -3.55555563E-09
 -0.750000000      -5.58730173E-09
 -0.714999974       1.08698416E-07
 -0.680000007      -1.60507938E-07
 -0.644999981      -2.64126982E-07
 -0.610000014       7.55809538E-07
 -0.574999988      -1.62539692E-07
 -0.540000021      -1.75542868E-06
 -0.504999995       1.69041277E-06
 -0.469999999      -2.60063501E-07
 -0.435000002      -8.45206387E-07
 -0.400000006      -8.71212706E-06
 -0.365000010       3.41983505E-05
 -0.330000013      -6.02047003E-05
 -0.294999987       6.68363209E-05
 -0.259999990      -1.88546037E-05
 -0.224999994      -5.60436856E-05
 -0.189999998       5.94895246E-05
 -0.155000001       3.90095238E-06
 -0.119999997      -4.10250177E-05
  -8.50000009E-02   4.05699066E-05
  -5.00000007E-02  -4.13500966E-05
  -1.49999997E-02   2.49660952E-05
   1.99999996E-02   3.51085728E-05
   5.49999997E-02  -5.64337788E-05
   9.00000036E-02  -5.98146071E-05
  0.125000000       1.01424768E-04
  0.159999996       8.63410824E-05
  0.194999993      -1.64360128E-04
  0.230000004      -1.04025401E-06
  0.264999986       1.14427938E-04
  0.300000012      -7.22976547E-05
  0.335000008      -1.76193025E-05
  0.370000005       4.88919395E-05
  0.405000001      -7.28177838E-05
  0.439999998       1.08186417E-04
  0.474999994       5.40932087E-05
  0.509999990      -2.03889780E-04
  0.545000017      -1.66440641E-05
  0.579999983       1.84124961E-04
  0.615000010      -9.62234935E-06
  0.649999976      -4.78516849E-05
  0.685000002      -2.08050806E-05
  0.720000029      -1.45635559E-05
  0.754999995       9.77838790E-05
  0.790000021      -8.53008314E-05
  0.824999988      -5.20126996E-05
  0.860000014       1.40954420E-04
  0.894999981      -1.39654105E-04
  0.930000007      -8.58209532E-05
  0.964999974       2.43419432E-04
   1.00000000       5.82542234E-05
   1.03499997      -2.70466029E-04
   1.07000005       3.48485082E-05
   1.10500002       1.17808770E-04
   1.13999999      -3.54986696E-05
   1.17499995       3.01673663E-05
   1.21000004      -1.76843187E-05
   1.24500000      -5.92944780E-05
   1.27999997       1.14688002E-04
   1.31500006      -2.95172067E-05
   1.35000002      -1.47293467E-04
   1.38499999       1.19499178E-04
   1.41999996       7.03471742E-05
   1.45500004      -1.71381849E-04
   1.49000001       4.90219718E-05
   1.52499998       1.39003940E-04
   1.55999994      -1.29381588E-04
   1.59500003      -6.61861632E-05
   1.63000000       1.42124700E-04
