 -0.959999979       0.00000000
 -0.925000012       0.00000000
 -0.889999986      -8.06850026E-23
 -0.855000019       1.78605842E-14
 -0.819999993      -3.32176591E-15
 -0.785000026      -3.74830971E-13
 -0.750000000      -6.93235074E-13
 -0.714999974      -7.29916344E-13
 -0.680000007      -1.20059475E-12
 -0.644999981      -4.79148015E-12
 -0.610000014       1.67485643E-12
 -0.574999988      -2.76262763E-11
 -0.540000021      -4.95839524E-12
 -0.504999995       1.01178572E-10
 -0.469999999       1.23666355E-10
 -0.435000002       3.17542347E-11
 -0.400000006      -2.68167785E-13
 -0.365000010       7.68108355E-11
 -0.330000013      -1.87477547E-10
 -0.294999987      -1.10082832E-10
 -0.259999990       1.03244280E-09
 -0.224999994      -5.20334775E-10
 -0.189999998      -2.04332129E-09
 -0.155000001       1.65896863E-09
 -0.119999997       4.04542266E-09
  -8.50000009E-02   1.26086130E-09
  -5.00000007E-02   1.26904454E-09
  -1.49999997E-02   3.72090914E-09
   1.99999996E-02  -3.91997013E-09
   5.49999997E-02  -1.35522766E-08
   9.00000036E-02  -1.08789342E-08
  0.125000000       1.28011557E-09
  0.159999996       4.70272976E-09
  0.194999993       6.29885655E-09
  0.230000004       1.56753419E-08
  0.264999986       1.30091138E-08
  0.300000012      -4.81055951E-09
  0.335000008       4.73333772E-09
  0.370000005       9.26366361E-09
  0.405000001      -1.94759142E-08
  0.439999998      -8.31474800E-09
  0.474999994       2.93367530E-09
  0.509999990      -1.55045239E-08
  0.545000017      -1.48353871E-08
  0.579999983       2.24359042E-09
  0.615000010       4.96355890E-09
  0.649999976       8.72947964E-11
  0.685000002       1.31208679E-08
  0.720000029       2.83550907E-08
  0.754999995       2.01598596E-08
  0.790000021       5.98033445E-09
  0.824999988       5.24824184E-09
  0.860000014      -1.23994717E-08
  0.894999981      -3.70390580E-08
  0.930000007      -2.78031820E-08
  0.964999974      -1.58440661E-09
   1.00000000       3.42302435E-08
   1.03499997       4.14272385E-08
   1.07000005       1.84810851E-08
   1.10500002       8.26338997E-09
   1.13999999       9.59881508E-09
   1.17499995      -3.62137342E-09
   1.21000004      -1.55346491E-08
   1.24500000      -1.14548966E-08
   1.27999997       1.12341176E-08
   1.31500006       2.22605276E-08
   1.35000002       4.62816852E-09
   1.38499999      -1.59471600E-08
   1.41999996      -6.42752118E-09
   1.45500004       1.18382415E-08
   1.49000001       8.15749335E-09
   1.52499998      -9.45204981E-09
   1.55999994      -1.17717116E-08
   1.59500003       4.45288167E-10
   1.63000000      -1.65143703E-08
