 -0.959999979       0.00000000
 -0.925000012      -2.78796417E-19
 -0.889999986      -1.96676941E-12
 -0.855000019      -3.27277858E-11
 -0.819999993       1.24187799E-10
 -0.785000026      -8.95951230E-11
 -0.750000000       1.29631014E-10
 -0.714999974      -2.51799648E-09
 -0.680000007       2.59289212E-09
 -0.644999981       1.80534387E-09
 -0.610000014       2.78685586E-09
 -0.574999988      -1.43822962E-08
 -0.540000021       2.43086618E-08
 -0.504999995      -2.46267060E-08
 -0.469999999       7.83810794E-09
 -0.435000002       1.45465847E-07
 -0.400000006      -1.86168023E-07
 -0.365000010      -5.97305529E-07
 -0.330000013       1.27768658E-06
 -0.294999987       1.94890113E-08
 -0.259999990      -1.92397169E-06
 -0.224999994       8.80695950E-07
 -0.189999998       2.95912082E-06
 -0.155000001      -3.21885523E-06
 -0.119999997      -5.02825560E-06
  -8.50000009E-02   9.69203575E-06
  -5.00000007E-02   3.57141607E-06
  -1.49999997E-02  -1.24282442E-05
   1.99999996E-02  -1.26719635E-06
   5.49999997E-02   5.06528568E-06
   9.00000036E-02   3.32725620E-07
  0.125000000       1.26530913E-05
  0.159999996      -1.31278457E-05
  0.194999993      -1.04830651E-05
  0.230000004       1.05483123E-05
  0.264999986       1.64699977E-05
  0.300000012      -1.36010867E-05
  0.335000008      -1.08008735E-05
  0.370000005      -1.46278862E-05
  0.405000001       2.57500305E-05
  0.439999998       2.72708949E-05
  0.474999994      -1.72737819E-05
  0.509999990      -1.93512224E-05
  0.545000017       1.30254894E-05
  0.579999983       1.07207361E-05
  0.615000010      -5.62729219E-05
  0.649999976       1.83708671E-05
  0.685000002       5.34688115E-05
  0.720000029      -5.24165916E-05
  0.754999995      -2.15885702E-05
  0.790000021       7.68159080E-05
  0.824999988      -8.30591307E-06
  0.860000014      -4.02916266E-05
  0.894999981       4.06356085E-05
  0.930000007      -3.89575280E-06
  0.964999974      -4.94944979E-05
   1.00000000      -1.64367011E-05
   1.03499997       3.87225627E-05
   1.07000005       5.70306793E-06
   1.10500002       4.19745520E-05
   1.13999999       1.19824963E-05
   1.17499995      -5.95203492E-05
   1.21000004      -3.77632932E-05
   1.24500000       1.49470125E-05
   1.27999997       1.00467614E-05
   1.31500006       1.08806080E-05
   1.35000002       5.78904910E-05
   1.38499999      -4.04892780E-05
   1.41999996      -9.89793698E-05
   1.45500004       6.45263281E-05
   1.49000001       1.11490852E-04
   1.52499998      -7.90849735E-05
   1.55999994      -5.50220866E-05
   1.59500003       6.62451275E-05
   1.63000000      -2.93437961E-06
