 -0.959999979       0.00000000
 -0.925000012       0.00000000
 -0.889999986      -1.45580625E-09
 -0.855000019      -1.82018951E-08
 -0.819999993      -2.89432762E-08
 -0.785000026      -5.74303662E-08
 -0.750000000      -1.58712794E-07
 -0.714999974      -3.42658552E-07
 -0.680000007      -7.74556611E-07
 -0.644999981      -1.57725083E-06
 -0.610000014      -2.64276400E-06
 -0.574999988      -4.56748285E-06
 -0.540000021      -8.51155437E-06
 -0.504999995      -1.44679188E-05
 -0.469999999      -2.20971160E-05
 -0.435000002      -3.24646862E-05
 -0.400000006      -4.57737879E-05
 -0.365000010      -6.01833453E-05
 -0.330000013      -7.57057715E-05
 -0.294999987      -9.63777784E-05
 -0.259999990      -1.32280009E-04
 -0.224999994      -2.11180479E-04
 -0.189999998      -3.94820236E-04
 -0.155000001      -7.91564642E-04
 -0.119999997      -1.57036120E-03
  -8.50000009E-02  -2.97015836E-03
  -5.00000007E-02  -5.28245233E-03
  -1.49999997E-02  -8.79869051E-03
   1.99999996E-02  -1.37264319E-02
   5.49999997E-02  -2.00732667E-02
   9.00000036E-02  -2.75163651E-02
  0.125000000      -3.53067704E-02
  0.159999996      -4.22544144E-02
  0.194999993      -4.68208604E-02
  0.230000004      -4.73349839E-02
  0.264999986      -4.23114561E-02
  0.300000012      -3.08003947E-02
  0.335000008      -1.26825096E-02
  0.370000005       1.11589786E-02
  0.405000001       3.88388559E-02
  0.439999998       6.76556528E-02
  0.474999994       9.44226235E-02
  0.509999990      0.115879953
  0.545000017      0.129127905
  0.579999983      0.132021874
  0.615000010      0.123475231
  0.649999976      0.103638075
  0.685000002       7.39390478E-02
  0.720000029       3.69831137E-02
  0.754999995      -3.68959177E-03
  0.790000021      -4.39665467E-02
  0.824999988      -7.96244144E-02
  0.860000014     -0.106857397
  0.894999981     -0.122820564
  0.930000007     -0.126105249
  0.964999974     -0.117035061
   1.00000000      -9.76740047E-02
   1.03499997      -7.14881867E-02
   1.07000005      -4.26891521E-02
   1.10500002      -1.53960884E-02
   1.13999999       7.15924241E-03
   1.17499995       2.31562406E-02
   1.21000004       3.22999246E-02
   1.24500000       3.55315544E-02
   1.27999997       3.44804712E-02
   1.31500006       3.08817420E-02
   1.35000002       2.61592939E-02
   1.38499999       2.12634001E-02
   1.41999996       1.67220663E-02
   1.45500004       1.27844280E-02
   1.49000001       9.53554548E-03
   1.52499998       6.93034660E-03
   1.55999994       4.77839913E-03
   1.59500003       2.75903731E-03
   1.63000000       5.26786491E-04
