 -0.800000012       0.00000000
 -0.788999975       0.00000000
 -0.777999997       0.00000000
 -0.767000020      -8.52472738E-26
 -0.755999982       1.41714783E-17
 -0.745000005      -5.30424906E-15
 -0.734000027       2.07171520E-14
 -0.722999990      -4.48703710E-14
 -0.712000012      -3.31651481E-13
 -0.700999975       1.76109832E-12
 -0.689999998      -2.67187531E-12
 -0.679000020      -4.43938115E-12
 -0.667999983       2.39643149E-11
 -0.657000005      -2.43141167E-11
 -0.646000028      -5.30554246E-11
 -0.634999990       1.25605637E-10
 -0.624000013       3.22365051E-11
 -0.612999976      -2.59687716E-10
 -0.601999998       1.03921961E-10
 -0.591000021       2.53395221E-10
 -0.579999983      -3.43854722E-10
 -0.569000006       1.08413264E-10
 -0.558000028       5.68438685E-10
 -0.546999991      -8.74698702E-10
 -0.536000013      -7.91286037E-10
 -0.524999976       2.17084350E-09
 -0.513999999       4.02952921E-10
 -0.503000021      -2.68941580E-09
 -0.492000014      -2.93255559E-10
 -0.481000006       1.09481946E-09
 -0.469999999       4.71813433E-09
 -0.458999991       6.42425668E-10
 -0.448000014      -1.72432699E-08
 -0.437000006       4.35608216E-11
 -0.425999999       3.94158413E-08
 -0.414999992      -1.08307239E-08
 -0.404000014      -6.53044481E-08
 -0.393000007       5.14194554E-08
 -0.381999999       7.00432068E-08
 -0.370999992      -1.34536890E-07
 -0.360000014      -2.35175186E-08
 -0.349000007       2.34134802E-07
 -0.338000000      -6.18796534E-08
 -0.326999992      -2.94323144E-07
 -0.316000015       1.19959978E-07
 -0.305000007       2.69780912E-07
 -0.294000000      -6.66446240E-08
 -0.282999992      -1.83424788E-07
 -0.272000015      -1.89757174E-07
 -0.261000007       2.54299692E-07
 -0.250000000       6.47330921E-07
 -0.238999993      -8.00565033E-07
 -0.228000000      -1.13633632E-06
 -0.216999993       1.90806622E-06
 -0.206000000       1.29802868E-06
 -0.194999993      -3.05469257E-06
 -0.184000000      -7.33779018E-07
 -0.172999993       3.15393140E-06
 -0.162000000      -7.31703267E-07
 -0.150999993      -1.45677961E-06
 -0.140000001       2.58386035E-06
 -0.128999993      -1.61875880E-06
 -0.118000001      -3.24480879E-06
 -0.107000001       4.55678673E-06
  -9.60000008E-02   1.60992738E-06
  -8.50000009E-02  -7.14711678E-06
  -7.40000010E-02   2.01587113E-06
  -6.30000010E-02   1.08299973E-05
  -5.20000011E-02  -4.46840613E-06
  -4.10000011E-02  -1.66711234E-05
  -2.99999993E-02   1.06192738E-06
  -1.89999994E-02   2.27320743E-05
  -8.00000038E-03   3.01125510E-06
   3.00000003E-03  -2.42391470E-05
   1.40000004E-02   3.78335062E-06
   2.50000004E-02   2.96496964E-05
   3.59999985E-02  -2.78119442E-05
   4.69999984E-02  -4.64157783E-05
   5.79999983E-02   5.31336409E-05
   6.89999983E-02   7.75961307E-05
   7.99999982E-02  -7.11926914E-05
   9.09999982E-02  -9.42896222E-05
  0.101999998       7.47346858E-05
  0.112999998       9.74871145E-05
  0.123999998      -7.38626914E-05
  0.135000005      -9.90787012E-05
  0.145999998       6.23909509E-05
  0.157000005       6.05639325E-05
  0.167999998      -5.38240456E-05
  0.179000005       5.31603291E-05
  0.189999998       1.01677091E-04
  0.201000005      -2.09088626E-04
  0.211999997      -2.20375092E-04
  0.223000005       3.35306831E-04
  0.233999997       3.41087900E-04
  0.245000005      -3.67489440E-04
  0.256000012      -3.91327281E-04
  0.266999990       3.56154633E-04
  0.277999997       3.22663662E-04
  0.289000005      -3.52574687E-04
  0.300000012      -2.34899198E-04
  0.310999990       4.02042409E-04
  0.321999997       2.00853436E-04
  0.333000004      -5.20609959E-04
  0.344000012      -2.67606956E-04
  0.354999989       6.70945796E-04
  0.365999997       4.03724465E-04
  0.377000004      -7.45030819E-04
  0.388000011      -5.13766543E-04
  0.398999989       7.33245281E-04
  0.409999996       5.85374597E-04
  0.421000004      -6.08647126E-04
  0.432000011      -5.91834600E-04
  0.442999989       4.79465263E-04
  0.453999996       3.88163695E-04
  0.465000004      -3.47230147E-04
  0.476000011      -3.55383469E-04
  0.486999989       3.48533824E-04
  0.497999996       2.23197378E-04
  0.509000003      -1.56494716E-05
  0.519999981      -1.84716322E-04
  0.531000018      -4.39716387E-05
  0.541999996      -9.58468736E-05
  0.552999973      -2.90197437E-04
  0.564000010       3.89894121E-04
  0.574999988       1.00320508E-03
  0.586000025      -4.86293022E-04
  0.597000003      -1.59067451E-03
  0.607999980       2.84892390E-04
  0.619000018       1.59440748E-03
  0.629999995      -1.93534972E-04
  0.640999973      -1.15201750E-03
  0.652000010       3.78067693E-04
  0.662999988       9.69237648E-04
  0.674000025      -3.70451686E-04
  0.685000002      -1.05542154E-03
  0.695999980       6.47669149E-05
  0.707000017       9.21813713E-04
  0.717999995       1.83517186E-04
  0.728999972      -9.36785422E-04
  0.740000010      -1.56562121E-04
  0.750999987       8.02072056E-04
  0.762000024       3.11816490E-04
  0.773000002      -2.59170833E-04
  0.783999979       2.14804837E-04
  0.795000017      -7.41648313E-04
  0.805999994      -1.40298659E-03
  0.816999972       8.25752679E-04
  0.828000009       2.56064208E-03
  0.838999987       3.96707212E-04
  0.850000024      -2.59897439E-03
  0.861000001      -2.18826463E-03
  0.871999979       1.83329289E-03
  0.883000016       2.73814262E-03
  0.893999994      -6.30459224E-04
  0.904999971      -2.12797662E-03
  0.916000009       3.79842240E-04
  0.926999986       8.87192495E-04
  0.938000023      -1.04323658E-03
  0.949000001       4.03658305E-05
  0.959999979       1.55944633E-03
  0.971000016      -2.15030494E-04
  0.981999993      -1.35045918E-03
  0.992999971       3.42481711E-04
   1.00399995       3.98285745E-04
   1.01499999      -8.10177124E-04
   1.02600002       5.14314394E-04
   1.03699994       1.16901402E-03
   1.04799998      -8.56775267E-04
   1.05900002      -1.20208517E-03
   1.07000005       8.83601082E-04
   1.08099997       1.27030641E-03
   1.09200001      -3.95108422E-04
   1.10300004      -1.51324633E-03
   1.11399996      -8.71712284E-04
   1.12500000       1.11342990E-03
   1.13600004       1.95973087E-03
   1.14699996       1.37955221E-05
   1.15799999      -1.78301858E-03
   1.16900003      -7.34510773E-04
   1.17999995       8.63246736E-04
   1.19099998       4.42191318E-04
   1.20200002      -3.59234138E-04
   1.21300006       3.27302085E-04
   1.22399998       6.81174628E-04
   1.23500001      -5.36950305E-04
   1.24600005      -1.18792010E-03
   1.25699997       1.90750015E-05
   1.26800001       8.70116055E-04
   1.27900004       3.57704674E-04
   1.28999996       1.35639304E-04
   1.30100000       1.11644251E-04
   1.31200004      -7.43947516E-04
   1.32299995      -7.64624041E-04
   1.33399999       6.46398170E-04
   1.34500003       8.55641381E-04
   1.35599995      -4.63305681E-04
   1.36699998      -6.42747735E-04
   1.37800002       3.89387802E-04
   1.38900006       4.39632451E-04
