 -0.800000012       0.00000000
 -0.788999975       0.00000000
 -0.777999997       0.00000000
 -0.767000020      -9.87461363E-11
 -0.755999982      -4.80912983E-11
 -0.745000005      -5.11505238E-09
 -0.734000027       3.35024559E-08
 -0.722999990      -1.04261602E-07
 -0.712000012       2.23155411E-07
 -0.700999975      -1.78493792E-07
 -0.689999998      -9.40513416E-07
 -0.679000020       3.23675022E-06
 -0.667999983      -1.24091503E-06
 -0.657000005      -1.12826037E-05
 -0.646000028       1.71614156E-05
 -0.634999990       1.77606453E-05
 -0.624000013      -6.09781855E-05
 -0.612999976       2.18270588E-06
 -0.601999998       1.29966618E-04
 -0.591000021      -8.58883723E-05
 -0.579999983      -1.74986460E-04
 -0.569000006       2.49442965E-04
 -0.558000028       9.11856259E-05
 -0.546999991      -4.39846917E-04
 -0.536000013       2.28048812E-04
 -0.524999976       5.13073872E-04
 -0.513999999      -7.55405112E-04
 -0.503000021      -2.62203772E-04
 -0.492000014       1.18810695E-03
 -0.481000006      -5.19620255E-04
 -0.469999999      -1.00520207E-03
 -0.458999991       1.90352998E-03
 -0.448000014      -1.44713922E-04
 -0.437000006      -3.48510756E-03
 -0.425999999       2.08423031E-03
 -0.414999992       4.06953972E-03
 -0.404000014      -4.37066052E-03
 -0.393000007      -2.33533327E-03
 -0.381999999       6.54917769E-03
 -0.370999992      -1.69497041E-03
 -0.360000014      -7.25366967E-03
 -0.349000007       7.21977977E-03
 -0.338000000       5.17816376E-03
 -0.326999992      -1.34329908E-02
 -0.316000015      -2.65408307E-03
 -0.305000007       1.34523585E-02
 -0.294000000      -5.97003009E-03
 -0.282999992      -1.37132695E-02
 -0.272000015       9.15180892E-03
 -0.261000007       2.17263610E-03
 -0.250000000      -2.04375368E-02
 -0.238999993      -2.51496467E-03
 -0.228000000       7.93153979E-03
 -0.216999993      -2.26407498E-02
 -0.206000000      -2.53218748E-02
 -0.194999993      -2.76049785E-03
 -0.184000000      -2.41145771E-02
 -0.172999993      -4.97974269E-02
 -0.162000000      -3.37237269E-02
 -0.150999993      -4.19380441E-02
 -0.140000001      -8.38946849E-02
 -0.128999993      -9.01128501E-02
 -0.118000001      -9.16902721E-02
 -0.107000001     -0.140351862
  -9.60000008E-02 -0.178666770
  -8.50000009E-02 -0.191860080
  -7.40000010E-02 -0.244303033
  -6.30000010E-02 -0.311642498
  -5.20000011E-02 -0.348182887
  -4.10000011E-02 -0.409716427
  -2.99999993E-02 -0.508155942
  -1.89999994E-02 -0.578199148
  -8.00000038E-03 -0.646399856
   3.00000003E-03 -0.760905564
   1.40000004E-02 -0.861513793
   2.50000004E-02 -0.932431400
   3.59999985E-02  -1.04276538
   4.69999984E-02  -1.16014588
   5.79999983E-02  -1.21928489
   6.89999983E-02  -1.28052580
   7.99999982E-02  -1.36717403
   9.09999982E-02  -1.38946569
  0.101999998      -1.35716462
  0.112999998      -1.34324312
  0.123999998      -1.28180397
  0.135000005      -1.11444306
  0.145999998     -0.925765753
  0.157000005     -0.723079503
  0.167999998     -0.406595290
  0.179000005      -9.92842019E-03
  0.189999998      0.384673059
  0.201000005      0.845920026
  0.211999997       1.41216779
  0.223000005       1.97988296
  0.233999997       2.53975487
  0.245000005       3.17327571
  0.256000012       3.81746602
  0.266999990       4.38263083
  0.277999997       4.93000698
  0.289000005       5.47120190
  0.300000012       5.89502621
  0.310999990       6.20333958
  0.321999997       6.46553993
  0.333000004       6.60666704
  0.344000012       6.56401110
  0.354999989       6.42107344
  0.365999997       6.18597317
  0.377000004       5.77203989
  0.388000011       5.22389126
  0.398999989       4.62031174
  0.409999996       3.90323043
  0.421000004       3.06090188
  0.432000011       2.19630122
  0.442999989       1.30930066
  0.453999996      0.341775745
  0.465000004     -0.634933889
  0.476000011      -1.56070721
  0.486999989      -2.50387907
  0.497999996      -3.46585059
  0.509000003      -4.36061907
  0.519999981      -5.21551943
  0.531000018      -6.09929276
  0.541999996      -6.95740175
  0.552999973      -7.74766350
  0.564000010      -8.54098988
  0.574999988      -9.35009956
  0.586000025      -10.0951052
  0.597000003      -10.7774706
  0.607999980      -11.4463043
  0.619000018      -12.0441103
  0.629999995      -12.4972162
  0.640999973      -12.8256178
  0.652000010      -13.0186892
  0.662999988      -12.9864464
  0.674000025      -12.6995087
  0.685000002      -12.1744318
  0.695999980      -11.3612995
  0.707000017      -10.2193632
  0.717999995      -8.78040886
  0.728999972      -7.05217505
  0.740000010      -5.02207804
  0.750999987      -2.75023150
  0.762000024     -0.302137554
  0.773000002       2.30336928
  0.783999979       4.99136877
  0.795000017       7.63611174
  0.805999994       10.1814661
  0.816999972       12.5825396
  0.828000009       14.7168589
  0.838999987       16.4890614
  0.850000024       17.8866272
  0.861000001       18.8647118
  0.871999979       19.3365250
  0.883000016       19.3004074
  0.893999994       18.8086548
  0.904999971       17.8549709
  0.916000009       16.4368591
  0.926999986       14.6487570
  0.938000023       12.5853863
  0.949000001       10.2733164
  0.959999979       7.78353119
  0.971000016       5.25129890
  0.981999993       2.74912715
  0.992999971      0.310047984
   1.00399995      -1.96995354
   1.01499999      -3.99991083
   1.02600002      -5.77142143
   1.03699994      -7.26471376
   1.04799998      -8.42074680
   1.05900002      -9.23771381
   1.07000005      -9.75314140
   1.08099997      -9.96450233
   1.09200001      -9.87790680
   1.10300004      -9.55287933
   1.11399996      -9.03494740
   1.12500000      -8.33600807
   1.13600004      -7.50254917
   1.14699996      -6.60401821
   1.15799999      -5.66377211
   1.16900003      -4.69248199
   1.17999995      -3.74530172
   1.19099998      -2.86407661
   1.20200002      -2.03660774
   1.21300006      -1.27503681
   1.22399998     -0.624880493
   1.23500001      -7.59204999E-02
   1.24600005      0.400813758
   1.25699997      0.775632799
   1.26800001       1.04137802
   1.27900004       1.24779058
   1.28999996       1.39262915
   1.30100000       1.44681692
   1.31200004       1.45530248
   1.32299995       1.45126009
   1.33399999       1.39454031
   1.34500003       1.29549885
   1.35599995       1.21331096
   1.36699998       1.12906432
   1.37800002       1.00722563
   1.38900006      0.893439591
