 -0.959999979       0.00000000
 -0.925000012       0.00000000
 -0.889999986      -1.72071267E-07
 -0.855000019      -1.94148902E-06
 -0.819999993      -5.00256556E-06
 -0.785000026      -8.94550521E-06
 -0.750000000      -1.98639063E-05
 -0.714999974      -4.68804574E-05
 -0.680000007      -9.82942292E-05
 -0.644999981      -1.92882741E-04
 -0.610000014      -3.66944354E-04
 -0.574999988      -6.67829940E-04
 -0.540000021      -1.15455280E-03
 -0.504999995      -1.89705123E-03
 -0.469999999      -2.95281690E-03
 -0.435000002      -4.33865050E-03
 -0.400000006      -6.00330904E-03
 -0.365000010      -7.77835445E-03
 -0.330000013      -9.33856145E-03
 -0.294999987      -1.02299880E-02
 -0.259999990      -9.95597709E-03
 -0.224999994      -8.10006075E-03
 -0.189999998      -4.50895960E-03
 -0.155000001       5.03547199E-04
 -0.119999997       6.04486465E-03
  -8.50000009E-02   1.06708584E-02
  -5.00000007E-02   1.25407139E-02
  -1.49999997E-02   9.71041620E-03
   1.99999996E-02   5.07694378E-04
   5.49999997E-02  -1.61681473E-02
   9.00000036E-02  -4.06907201E-02
  0.125000000      -7.26201534E-02
  0.159999996     -0.110612631
  0.194999993     -0.152266189
  0.230000004     -0.193832859
  0.264999986     -0.229899988
  0.300000012     -0.253384411
  0.335000008     -0.256177664
  0.370000005     -0.230573490
  0.405000001     -0.171344325
  0.439999998      -7.79518411E-02
  0.474999994       4.39415127E-02
  0.509999990      0.182388261
  0.545000017      0.320741534
  0.579999983      0.440595269
  0.615000010      0.525275111
  0.649999976      0.562856078
  0.685000002      0.547974825
  0.720000029      0.482296497
  0.754999995      0.373913199
  0.790000021      0.236079261
  0.824999988       8.55876282E-02
  0.860000014      -5.91928400E-02
  0.894999981     -0.180779293
  0.930000007     -0.265457124
  0.964999974     -0.306007028
   1.00000000     -0.303371340
   1.03499997     -0.266411096
   1.07000005     -0.209420279
   1.10500002     -0.147970572
   1.13999999      -9.45146009E-02
   1.17499995      -5.54209240E-02
   1.21000004      -3.05650625E-02
   1.24500000      -1.54962679E-02
   1.27999997      -5.01367683E-03
   1.31500006       3.68474727E-03
   1.35000002       9.84191801E-03
   1.38499999       1.04255015E-02
   1.41999996       2.98512215E-03
   1.45500004      -1.16486670E-02
   1.49000001      -2.85075400E-02
   1.52499998      -4.01627459E-02
   1.55999994      -4.01854925E-02
   1.59500003      -2.65764724E-02
   1.63000000      -3.27309989E-03
