 -0.800000012       0.00000000
 -0.788999975       0.00000000
 -0.777999997       0.00000000
 -0.767000020      -7.80945574E-25
 -0.755999982       1.10084571E-17
 -0.745000005      -2.80118395E-17
 -0.734000027       3.05064263E-16
 -0.722999990       7.51419206E-17
 -0.712000012      -9.08383755E-16
 -0.700999975       2.33981777E-15
 -0.689999998      -5.10190306E-15
 -0.679000020      -2.08204489E-15
 -0.667999983       1.04836675E-14
 -0.657000005      -1.13557015E-14
 -0.646000028      -9.86751032E-15
 -0.634999990       6.96445821E-15
 -0.624000013       2.48221921E-14
 -0.612999976      -1.11433012E-14
 -0.601999998       1.58087371E-15
 -0.591000021       4.44103372E-14
 -0.579999983       1.03165623E-14
 -0.569000006      -7.36594962E-14
 -0.558000028       1.83437334E-14
 -0.546999991       9.46578360E-14
 -0.536000013       2.50651025E-14
 -0.524999976       4.28975093E-14
 -0.513999999      -1.16427579E-13
 -0.503000021      -5.18069257E-13
 -0.492000014       9.50109268E-14
 -0.481000006       9.83186622E-13
 -0.469999999       2.91462872E-13
 -0.458999991      -5.95080029E-13
 -0.448000014      -1.30181402E-13
 -0.437000006      -1.81060711E-12
 -0.425999999      -3.52457169E-12
 -0.414999992       2.76524376E-12
 -0.404000014       9.75451143E-12
 -0.393000007      -9.41324492E-13
 -0.381999999      -1.34723560E-11
 -0.370999992      -3.15949827E-12
 -0.360000014       7.96505743E-12
 -0.349000007       7.58910892E-13
 -0.338000000       1.09153225E-11
 -0.326999992       1.42629727E-11
 -0.316000015      -4.82778956E-11
 -0.305000007      -4.06500320E-11
 -0.294000000       7.73927311E-11
 -0.282999992       5.74215016E-11
 -0.272000015      -4.26743467E-11
 -0.261000007       2.18847301E-11
 -0.250000000      -2.88118357E-12
 -0.238999993      -1.27327537E-10
 -0.228000000       4.54762859E-11
 -0.216999993       1.99335909E-10
 -0.206000000      -1.48069598E-10
 -0.194999993      -2.36772463E-10
 -0.184000000       2.50951537E-10
 -0.172999993       8.75791870E-11
 -0.162000000      -5.84140458E-10
 -0.150999993       7.13202206E-11
 -0.140000001       3.91132321E-10
 -0.128999993      -2.81762919E-10
 -0.118000001       2.66851180E-10
 -0.107000001       7.04121261E-10
  -9.60000008E-02  -3.97242100E-11
  -8.50000009E-02  -5.52303925E-10
  -7.40000010E-02  -1.50331980E-09
  -6.30000010E-02  -9.11183573E-10
  -5.20000011E-02   3.21914961E-09
  -4.10000011E-02   4.31995995E-09
  -2.99999993E-02  -8.96212271E-10
  -1.89999994E-02  -8.86402174E-10
  -8.00000038E-03   2.04231965E-09
   3.00000003E-03  -2.80873075E-10
   1.40000004E-02  -2.76271672E-09
   2.50000004E-02  -3.53647511E-09
   3.59999985E-02  -7.59532826E-10
   4.69999984E-02   5.26385069E-09
   5.79999983E-02   3.03842773E-09
   6.89999983E-02  -7.68939845E-09
   7.99999982E-02  -7.59768692E-09
   9.09999982E-02   7.59523644E-09
  0.101999998       7.31346050E-09
  0.112999998      -4.10606704E-09
  0.123999998      -4.29823566E-10
  0.135000005       2.29052755E-09
  0.145999998      -4.06896072E-09
  0.157000005       1.77912607E-09
  0.167999998       9.94344429E-09
  0.179000005      -9.06295927E-09
  0.189999998      -2.23631567E-08
  0.201000005      -6.02924555E-09
  0.211999997       1.20366375E-08
  0.223000005       1.52616622E-08
  0.233999997       4.40580772E-09
  0.245000005      -5.38140688E-09
  0.256000012       1.06684483E-08
  0.266999990       2.97013827E-08
  0.277999997      -1.99174388E-09
  0.289000005      -2.95835800E-08
  0.300000012      -4.44694548E-09
  0.310999990       1.12454996E-08
  0.321999997      -3.53090313E-09
  0.333000004       2.68753486E-09
  0.344000012       1.48850603E-08
  0.354999989      -6.96273439E-09
  0.365999997      -2.13763585E-08
  0.377000004       1.87939015E-08
  0.388000011       1.45940193E-08
  0.398999989      -5.61266766E-08
  0.409999996      -4.84169327E-08
  0.421000004       3.25471881E-08
  0.432000011       3.99609839E-08
  0.442999989      -2.39920954E-08
  0.453999996      -1.08255014E-08
  0.465000004       3.76900147E-08
  0.476000011      -4.59515287E-10
  0.486999989      -5.38316094E-08
  0.497999996      -2.26033308E-08
  0.509000003       9.90067672E-09
  0.519999981      -2.67150497E-08
  0.531000018      -2.47509480E-08
  0.541999996      -3.83816401E-09
  0.552999973      -3.26739737E-08
  0.564000010      -5.67443514E-08
  0.574999988      -1.54668029E-08
  0.586000025      -7.09447701E-09
  0.597000003      -5.73472292E-09
  0.607999980       2.99511953E-08
  0.619000018       8.49295034E-08
  0.629999995       7.50108100E-08
  0.640999973       9.84550930E-09
  0.652000010      -1.72715389E-08
  0.662999988      -6.63651745E-10
  0.674000025      -2.31094477E-09
  0.685000002      -1.91097804E-08
  0.695999980      -3.11894688E-08
  0.707000017      -2.65430007E-08
  0.717999995       3.84957222E-09
  0.728999972      -4.46944659E-09
  0.740000010      -6.67869315E-08
  0.750999987      -1.93057801E-08
  0.762000024       1.04672374E-07
  0.773000002       9.28420008E-08
  0.783999979       1.22550414E-09
  0.795000017       6.20311047E-09
  0.805999994       6.10574276E-08
  0.816999972       4.18158734E-08
  0.828000009      -5.26488115E-08
  0.838999987      -1.25954656E-07
  0.850000024      -5.53860637E-08
  0.861000001       5.10955545E-08
  0.871999979      -2.90317512E-08
  0.883000016      -1.07391855E-07
  0.893999994       5.34709912E-08
  0.904999971       1.73784755E-07
  0.916000009       1.37172380E-08
  0.926999986      -1.24905114E-07
  0.938000023      -2.46212064E-08
  0.949000001       5.76085206E-08
  0.959999979      -2.40067433E-08
  0.971000016      -7.44447561E-08
  0.981999993      -4.12604811E-11
  0.992999971       3.13415214E-08
   1.00399995      -5.36341780E-08
   1.01499999      -8.32635223E-08
   1.02600002       2.18903451E-09
   1.03699994       1.31027429E-08
   1.04799998      -5.84187489E-08
   1.05900002       1.21164045E-09
   1.07000005       9.61993010E-08
   1.08099997       3.44126967E-08
   1.09200001      -9.69986846E-09
   1.10300004       6.24273753E-08
   1.11399996       4.82240132E-08
   1.12500000      -5.11783291E-08
   1.13600004      -6.99314100E-08
   1.14699996      -3.51668739E-08
   1.15799999       4.80986473E-10
   1.16900003       2.17981349E-08
   1.17999995      -2.63439439E-08
   1.19099998      -3.76657709E-08
   1.20200002       6.87844448E-08
   1.21300006       6.83643577E-08
   1.22399998      -6.51095107E-08
   1.23500001      -2.06926440E-08
   1.24600005       1.25513253E-07
   1.25699997       2.01924415E-08
   1.26800001      -1.80075901E-07
   1.27900004      -1.03560531E-07
   1.28999996       9.95778393E-08
   1.30100000       6.13584703E-08
   1.31200004      -1.22018534E-07
   1.32299995      -7.79161553E-08
   1.33399999       1.21848942E-07
   1.34500003       6.53106937E-08
   1.35599995      -1.36597663E-07
   1.36699998      -3.06518508E-08
   1.37800002       1.77447532E-07
   1.38900006       4.38410090E-08
