 -0.959999979       0.00000000
 -0.925000012       0.00000000
 -0.889999986      -3.07394217E-08
 -0.855000019      -1.33048999E-07
 -0.819999993      -4.72040171E-07
 -0.785000026      -1.22133974E-06
 -0.750000000      -2.26733573E-06
 -0.714999974      -4.22867197E-06
 -0.680000007      -9.72142698E-06
 -0.644999981      -2.13295207E-05
 -0.610000014      -3.99967939E-05
 -0.574999988      -6.98842414E-05
 -0.540000021      -1.21162702E-04
 -0.504999995      -2.02197290E-04
 -0.469999999      -3.14583245E-04
 -0.435000002      -4.58698050E-04
 -0.400000006      -6.31099043E-04
 -0.365000010      -8.10644357E-04
 -0.330000013      -9.56681324E-04
 -0.294999987      -1.01803453E-03
 -0.259999990      -9.32920200E-04
 -0.224999994      -6.30616385E-04
 -0.189999998      -4.69418555E-05
 -0.155000001       8.72380566E-04
 -0.119999997       2.19347444E-03
  -8.50000009E-02   4.01595142E-03
  -5.00000007E-02   6.48348406E-03
  -1.49999997E-02   9.78193060E-03
   1.99999996E-02   1.40857156E-02
   5.49999997E-02   1.94147229E-02
   9.00000036E-02   2.54207253E-02
  0.125000000       3.11524142E-02
  0.159999996       3.48618552E-02
  0.194999993       3.39568593E-02
  0.230000004       2.52149329E-02
  0.264999986       5.32199349E-03
  0.300000012      -2.82737259E-02
  0.335000008      -7.63030499E-02
  0.370000005     -0.136658892
  0.405000001     -0.203750610
  0.439999998     -0.268540025
  0.474999994     -0.319472641
  0.509999990     -0.344312906
  0.545000017     -0.332580686
  0.579999983     -0.278044164
  0.615000010     -0.180664629
  0.649999976      -4.74794358E-02
  0.685000002      0.107891642
  0.720000029      0.267094612
  0.754999995      0.409882218
  0.790000021      0.517404616
  0.824999988      0.575359464
  0.860000014      0.576407254
  0.894999981      0.521354139
  0.930000007      0.418861747
  0.964999974      0.283780843
   1.00000000      0.134485036
   1.03499997      -1.02388468E-02
   1.07000005     -0.134109914
   1.10500002     -0.225522965
   1.13999999     -0.278670877
   1.17499995     -0.293636292
   1.21000004     -0.275627732
   1.24500000     -0.233554810
   1.27999997     -0.178169295
   1.31500006     -0.120079421
   1.35000002      -6.79746568E-02
   1.38499999      -2.73942612E-02
   1.41999996      -3.28407565E-04
   1.45500004       1.42563768E-02
   1.49000001       1.92258675E-02
   1.52499998       1.79422926E-02
   1.55999994       1.32882744E-02
   1.59500003       7.29757501E-03
   1.63000000       1.30315195E-03
