 -0.959999979       0.00000000
 -0.925000012       0.00000000
 -0.889999986       2.50832288E-09
 -0.855000019       2.58471893E-08
 -0.819999993       1.16054018E-07
 -0.785000026       3.14121024E-07
 -0.750000000       5.96726863E-07
 -0.714999974       1.06913205E-06
 -0.680000007       2.34136769E-06
 -0.644999981       5.29280578E-06
 -0.610000014       1.04816017E-05
 -0.574999988       1.87032892E-05
 -0.540000021       3.20337967E-05
 -0.504999995       5.30758589E-05
 -0.469999999       8.33088925E-05
 -0.435000002       1.22740064E-04
 -0.400000006       1.69415696E-04
 -0.365000010       2.17533787E-04
 -0.330000013       2.56722880E-04
 -0.294999987       2.73318466E-04
 -0.259999990       2.51740741E-04
 -0.224999994       1.77336115E-04
 -0.189999998       4.21711120E-05
 -0.155000001      -1.50171778E-04
 -0.119999997      -3.82762402E-04
  -8.50000009E-02  -6.21537096E-04
  -5.00000007E-02  -8.06712138E-04
  -1.49999997E-02  -8.41883011E-04
   1.99999996E-02  -5.83959918E-04
   5.49999997E-02   1.55289395E-04
   9.00000036E-02   1.57008693E-03
  0.125000000       3.75644746E-03
  0.159999996       6.53595570E-03
  0.194999993       9.23436228E-03
  0.230000004       1.04862712E-02
  0.264999986       8.17902666E-03
  0.300000012      -3.46543733E-04
  0.335000008      -1.77730247E-02
  0.370000005      -4.59926985E-02
  0.405000001      -8.51545036E-02
  0.439999998     -0.132828340
  0.474999994     -0.183583528
  0.509999990     -0.229225725
  0.545000017     -0.259806424
  0.579999983     -0.265331298
  0.615000010     -0.237887785
  0.649999976     -0.173749238
  0.685000002      -7.49494582E-02
  0.720000029       5.01298979E-02
  0.754999995      0.187450483
  0.790000021      0.319298327
  0.824999988      0.427236199
  0.860000014      0.495437831
  0.894999981      0.513679504
  0.930000007      0.479302913
  0.964999974      0.397682697
   1.00000000      0.281105071
   1.03499997      0.146356836
   1.07000005       1.16131855E-02
   1.10500002     -0.106677189
   1.13999999     -0.196277261
   1.17499995     -0.250599235
   1.21000004     -0.268968463
   1.24500000     -0.255851060
   1.27999997     -0.219347104
   1.31500006     -0.169317469
   1.35000002     -0.115515269
   1.38499999      -6.60457909E-02
   1.41999996      -2.63864249E-02
   1.45500004       9.30051727E-04
   1.49000001       1.60129201E-02
   1.52499998       2.08743755E-02
   1.55999994       1.85210891E-02
   1.59500003       1.21330274E-02
   1.63000000       4.48114332E-03
