 -0.800000012       0.00000000
 -0.788999975       0.00000000
 -0.777999997      -6.67700806E-05
 -0.767000020       3.74764204E-04
 -0.755999982      -1.87643120E-04
 -0.745000005      -1.52091985E-03
 -0.734000027       1.54287892E-03
 -0.722999990       3.25209135E-03
 -0.712000012      -4.88925725E-03
 -0.700999975      -3.78312287E-03
 -0.689999998       1.02522485E-02
 -0.679000020      -2.03063028E-04
 -0.667999983      -1.52328415E-02
 -0.657000005       1.25400629E-02
 -0.646000028       1.53036993E-02
 -0.634999990      -3.55382301E-02
 -0.624000013      -8.14342499E-03
 -0.612999976       6.46297261E-02
 -0.601999998      -4.11582133E-03
 -0.591000021      -8.48718733E-02
 -0.579999983       2.04968844E-02
 -0.569000006       8.25669840E-02
 -0.558000028      -3.96564566E-02
 -0.546999991      -5.80763035E-02
 -0.536000013       5.08980453E-02
 -0.524999976       1.96559764E-02
 -0.513999999      -4.30221036E-02
 -0.503000021       2.01722812E-02
 -0.492000014       1.67323984E-02
 -0.481000006      -3.94033678E-02
 -0.469999999       2.81229075E-02
 -0.458999991       3.27599980E-02
 -0.448000014      -7.70247728E-02
 -0.437000006      -6.45130593E-03
 -0.425999999      0.108278461
 -0.414999992      -2.32187100E-02
 -0.404000014      -9.01990980E-02
 -0.393000007       7.38223121E-02
 -0.381999999       6.33572862E-02
 -0.370999992      -9.03136358E-02
 -0.360000014       5.22366632E-03
 -0.349000007      0.132109061
 -0.338000000       6.87974505E-03
 -0.326999992      -5.76664433E-02
 -0.316000015       6.22163415E-02
 -0.305000007       9.11673680E-02
 -0.294000000       6.38253912E-02
 -0.282999992      0.112691015
 -0.272000015       9.99236703E-02
 -0.261000007       7.56484792E-02
 -0.250000000      0.197544962
 -0.238999993      0.272864163
 -0.228000000      0.217545986
 -0.216999993      0.293358773
 -0.206000000      0.457119077
 -0.194999993      0.457664400
 -0.184000000      0.468632072
 -0.172999993      0.680800676
 -0.162000000      0.837982893
 -0.150999993      0.826272786
 -0.140000001      0.912445486
 -0.128999993       1.13519216
 -0.118000001       1.26362884
 -0.107000001       1.29908931
  -9.60000008E-02   1.39140177
  -8.50000009E-02   1.49533141
  -7.40000010E-02   1.50543153
  -6.30000010E-02   1.45369554
  -5.20000011E-02   1.37457263
  -4.10000011E-02   1.21424174
  -2.99999993E-02  0.936432600
  -1.89999994E-02  0.534641206
  -8.00000038E-03  -2.54695211E-02
   3.00000003E-03 -0.743940711
   1.40000004E-02  -1.58870959
   2.50000004E-02  -2.61877847
   3.59999985E-02  -3.91164446
   4.69999984E-02  -5.41049910
   5.79999983E-02  -7.05272102
   6.89999983E-02  -8.88271713
   7.99999982E-02  -10.8962831
   9.09999982E-02  -13.0127735
  0.101999998      -15.1965542
  0.112999998      -17.4020672
  0.123999998      -19.5302429
  0.135000005      -21.4848175
  0.145999998      -23.1314945
  0.157000005      -24.3600807
  0.167999998      -25.1454945
  0.179000005      -25.2991047
  0.189999998      -24.5388088
  0.201000005      -22.9105778
  0.211999997      -20.4777813
  0.223000005      -16.8935490
  0.233999997      -12.0198326
  0.245000005      -6.18142653
  0.256000012      0.636799932
  0.266999990       8.66736031
  0.277999997       17.5720196
  0.289000005       26.9384308
  0.300000012       36.8039284
  0.310999990       46.9674149
  0.321999997       56.8576469
  0.333000004       66.1559067
  0.344000012       74.5908966
  0.354999989       81.6546478
  0.365999997       87.0091324
  0.377000004       90.3991013
  0.388000011       91.4003143
  0.398999989       89.8369217
  0.409999996       85.6964493
  0.421000004       78.6861191
  0.432000011       68.7846069
  0.442999989       56.5376282
  0.453999996       42.1593895
  0.465000004       25.5590382
  0.476000011       7.37631130
  0.486999989      -11.4083815
  0.497999996      -30.4914284
  0.509000003      -49.6192627
  0.519999981      -67.7940521
  0.531000018      -84.1267395
  0.541999996      -98.4716721
  0.552999973      -110.500099
  0.564000010      -119.342674
  0.574999988      -124.638618
  0.586000025      -126.685074
  0.597000003      -125.431847
  0.607999980      -120.547707
  0.619000018      -112.344635
  0.629999995      -101.488487
  0.640999973      -88.2530136
  0.652000010      -72.9395294
  0.662999988      -56.2560387
  0.674000025      -38.8954163
  0.685000002      -21.4119263
  0.695999980      -4.32123804
  0.707000017       11.9765625
  0.717999995       26.9482327
  0.728999972       39.9316101
  0.740000010       50.8023300
  0.750999987       59.7312355
  0.762000024       66.3262100
  0.773000002       70.2507172
  0.783999979       72.0140915
  0.795000017       71.9903412
  0.805999994       69.8937836
  0.816999972       65.9406815
  0.828000009       60.9475975
  0.838999987       55.1351700
  0.850000024       48.3455315
  0.861000001       41.0493698
  0.871999979       33.9013863
  0.883000016       26.9386845
  0.893999994       20.0879211
  0.904999971       13.7141294
  0.916000009       8.13124847
  0.926999986       3.21865726
  0.938000023      -1.12407434
  0.949000001      -4.69096327
  0.959999979      -7.39222050
  0.971000016      -9.45300770
  0.981999993      -11.0238037
  0.992999971      -12.0281334
   1.00399995      -12.4600916
   1.01499999      -12.4921865
   1.02600002      -12.2835951
   1.03699994      -11.8559427
   1.04799998      -11.1626406
   1.05900002      -10.2875614
   1.07000005      -9.42674828
   1.08099997      -8.58111763
   1.09200001      -7.61138153
   1.10300004      -6.62641430
   1.11399996      -5.81334734
   1.12500000      -5.05219841
   1.13600004      -4.23162031
   1.14699996      -3.52874708
   1.15799999      -2.99811959
   1.16900003      -2.47458839
   1.17999995      -1.98386157
   1.19099998      -1.65245414
   1.20200002      -1.39208508
   1.21300006      -1.10959268
   1.22399998     -0.891476929
   1.23500001     -0.785239160
   1.24600005     -0.713472545
   1.25699997     -0.613410354
   1.26800001     -0.508639455
   1.27900004     -0.466522604
   1.28999996     -0.457655698
   1.30100000     -0.373315901
   1.31200004     -0.273352504
   1.32299995     -0.275008738
   1.33399999     -0.237618938
   1.34500003      -7.17242062E-02
   1.35599995      -1.30450232E-02
   1.36699998      -8.21317509E-02
   1.37800002       2.09960565E-02
   1.38900006      0.208512157
