 -0.959999979       0.00000000
 -0.925000012       3.58331853E-08
 -0.889999986       3.69245583E-07
 -0.855000019       1.62208141E-06
 -0.819999993       4.11819792E-06
 -0.785000026       6.86675457E-06
 -0.750000000       1.07858714E-05
 -0.714999974       2.49234399E-05
 -0.680000007       6.03381959E-05
 -0.644999981       1.16289048E-04
 -0.610000014       1.91578336E-04
 -0.574999988       3.07888491E-04
 -0.540000021       4.91036684E-04
 -0.504999995       7.32501387E-04
 -0.469999999       9.95202921E-04
 -0.435000002       1.23009714E-03
 -0.400000006       1.35419611E-03
 -0.365000010       1.24724570E-03
 -0.330000013       7.96924112E-04
 -0.294999987      -7.11732500E-05
 -0.259999990      -1.37117668E-03
 -0.224999994      -2.99385213E-03
 -0.189999998      -4.67868429E-03
 -0.155000001      -6.07047835E-03
 -0.119999997      -6.73379190E-03
  -8.50000009E-02  -6.05642842E-03
  -5.00000007E-02  -3.14779952E-03
  -1.49999997E-02   3.18217487E-03
   1.99999996E-02   1.42453173E-02
   5.49999997E-02   3.07721030E-02
   9.00000036E-02   5.14451154E-02
  0.125000000       7.09409863E-02
  0.159999996       7.82559440E-02
  0.194999993       5.64330891E-02
  0.230000004      -1.50762396E-02
  0.264999986     -0.154754490
  0.300000012     -0.370743573
  0.335000008     -0.652087986
  0.370000005     -0.962592483
  0.405000001      -1.24050915
  0.439999998      -1.40612876
  0.474999994      -1.37710524
  0.509999990      -1.08889842
  0.545000017     -0.515793741
  0.579999983      0.313123286
  0.615000010       1.30831492
  0.649999976       2.32769036
  0.685000002       3.19827342
  0.720000029       3.74857068
  0.754999995       3.84526324
  0.790000021       3.42551017
  0.824999988       2.51627874
  0.860000014       1.23490512
  0.894999981     -0.230498448
  0.930000007      -1.65709782
  0.964999974      -2.83139801
   1.00000000      -3.59036946
   1.03499997      -3.84988403
   1.07000005      -3.61477184
   1.10500002      -2.96986341
   1.13999999      -2.05602908
   1.17499995      -1.03844547
   1.21000004      -7.50259534E-02
   1.24500000      0.708876491
   1.27999997       1.23619425
   1.31500006       1.48331189
   1.35000002       1.47530949
   1.38499999       1.27326918
   1.41999996      0.956797779
   1.45500004      0.605704904
   1.49000001      0.284918934
   1.52499998       3.58309858E-02
   1.55999994     -0.124876402
   1.59500003     -0.200570643
   1.63000000     -0.207643330
