 -0.800000012       0.00000000
 -0.788999975       0.00000000
 -0.777999997       0.00000000
 -0.767000020       0.00000000
 -0.755999982      -1.03149204E-29
 -0.745000005       1.71474884E-21
 -0.734000027      -6.38384651E-19
 -0.722999990       1.22829114E-18
 -0.712000012      -2.33434753E-18
 -0.700999975      -4.60268141E-17
 -0.689999998       1.23373618E-16
 -0.679000020      -3.05228753E-17
 -0.667999983      -7.21584509E-16
 -0.657000005       1.48703590E-15
 -0.646000028       7.53648571E-16
 -0.634999990      -6.39944530E-15
 -0.624000013       1.64574245E-15
 -0.612999976       1.35915474E-14
 -0.601999998      -5.88486220E-15
 -0.591000021      -1.27867162E-14
 -0.579999983       1.09722539E-14
 -0.569000006      -6.87519787E-15
 -0.558000028      -1.16046445E-14
 -0.546999991       5.24469892E-14
 -0.536000013       1.06600807E-14
 -0.524999976      -1.26872444E-13
 -0.513999999      -1.73290426E-15
 -0.503000021       1.72163946E-13
 -0.492000014       2.06414984E-14
 -0.481000006      -1.66364887E-13
 -0.469999999      -2.20898115E-13
 -0.458999991       2.95462900E-13
 -0.448000014       8.89557471E-13
 -0.437000006      -6.02783557E-13
 -0.425999999      -2.08985390E-12
 -0.414999992       1.19239276E-12
 -0.404000014       3.16412218E-12
 -0.393000007      -2.76598666E-12
 -0.381999999      -2.47434170E-12
 -0.370999992       6.29253117E-12
 -0.360000014      -1.21955874E-12
 -0.349000007      -1.15772687E-11
 -0.338000000       6.39533218E-12
 -0.326999992       1.68804953E-11
 -0.316000015      -8.24744179E-12
 -0.305000007      -1.88602189E-11
 -0.294000000       3.17048883E-12
 -0.282999992       1.71371996E-11
 -0.272000015       8.90950941E-12
 -0.261000007      -2.22787951E-11
 -0.250000000      -2.26968409E-11
 -0.238999993       5.52121578E-11
 -0.228000000       3.62527890E-11
 -0.216999993      -1.20203278E-10
 -0.206000000      -4.57833389E-11
 -0.194999993       1.85698068E-10
 -0.184000000       4.75616768E-11
 -0.172999993      -1.79361984E-10
 -0.162000000      -2.46599425E-11
 -0.150999993       4.15060104E-11
 -0.140000001      -6.85983770E-11
 -0.128999993       1.33944328E-10
 -0.118000001       1.40617212E-10
 -0.107000001      -2.45331755E-10
  -9.60000008E-02  -7.99095096E-11
  -8.50000009E-02   2.80313939E-10
  -7.40000010E-02  -2.24263691E-10
  -6.30000010E-02  -4.84920937E-10
  -5.20000011E-02   5.64851499E-10
  -4.10000011E-02   1.07394682E-09
  -2.99999993E-02  -4.34163760E-10
  -1.89999994E-02  -1.81378124E-09
  -8.00000038E-03  -4.42817727E-10
   3.00000003E-03   1.29250743E-09
   1.40000004E-02   9.48959730E-11
   2.50000004E-02  -6.44930109E-10
   3.59999985E-02   2.20285701E-09
   4.69999984E-02   1.68539871E-09
   5.79999983E-02  -4.44836834E-09
   6.89999983E-02  -4.15296464E-09
   7.99999982E-02   5.53157031E-09
   9.09999982E-02   6.60178978E-09
  0.101999998      -3.73703468E-09
  0.112999998      -5.03296205E-09
  0.123999998       5.46705081E-09
  0.135000005       7.02967817E-09
  0.145999998      -3.39621686E-09
  0.157000005      -6.27280627E-09
  0.167999998      -1.82115956E-09
  0.179000005      -3.88222254E-09
  0.189999998       4.89114249E-10
  0.201000005       1.71633783E-08
  0.211999997       8.53791882E-09
  0.223000005      -2.67529252E-08
  0.233999997      -2.14716440E-08
  0.245000005       2.50812739E-08
  0.256000012       2.71679728E-08
  0.266999990      -1.80959336E-08
  0.277999997      -2.02651265E-08
  0.289000005       1.66079825E-08
  0.300000012       1.08195533E-08
  0.310999990      -2.33916779E-08
  0.321999997      -8.95577745E-09
  0.333000004       2.97833900E-08
  0.344000012       5.52874901E-09
  0.354999989      -5.11063369E-08
  0.365999997      -2.65569859E-08
  0.377000004       4.68430237E-08
  0.388000011       3.00943093E-08
  0.398999989      -4.88201586E-08
  0.409999996      -3.90119475E-08
  0.421000004       4.16265920E-08
  0.432000011       4.86188299E-08
  0.442999989      -1.60009161E-08
  0.453999996      -2.26053665E-08
  0.465000004       1.77579889E-08
  0.476000011       1.61065010E-08
  0.486999989      -2.85463866E-08
  0.497999996      -3.10266799E-08
  0.509000003      -6.50009202E-09
  0.519999981       1.61329101E-08
  0.531000018       1.64152389E-08
  0.541999996       1.13769980E-08
  0.552999973      -5.25871391E-09
  0.564000010      -5.70083181E-08
  0.574999988      -6.15807352E-08
  0.586000025       5.52346577E-08
  0.597000003       1.13208593E-07
  0.607999980      -2.12890807E-08
  0.619000018      -1.21314770E-07
  0.629999995      -2.84171620E-08
  0.640999973       4.10627088E-08
  0.652000010      -2.88515292E-08
  0.662999988      -5.30195798E-08
  0.674000025       4.00901250E-08
  0.685000002       8.83751738E-08
  0.695999980       8.95421604E-09
  0.707000017      -6.26299368E-08
  0.717999995      -2.26746426E-08
  0.728999972       3.94862347E-08
  0.740000010      -1.17039223E-08
  0.750999987      -8.18380954E-08
  0.762000024      -5.49215464E-08
  0.773000002       9.72479519E-09
  0.783999979       4.30114682E-08
  0.795000017       1.02289526E-07
  0.805999994       7.18281328E-08
  0.816999972      -1.28394632E-07
  0.828000009      -2.28701339E-07
  0.838999987      -1.91703382E-08
  0.850000024       2.38362247E-07
  0.861000001       1.81418912E-07
  0.871999979      -1.40304437E-07
  0.883000016      -2.40199341E-07
  0.893999994      -8.77898021E-09
  0.904999971       1.46355831E-07
  0.916000009       4.40054677E-08
  0.926999986      -1.23839756E-08
  0.938000023       3.85768679E-08
  0.949000001      -3.66939155E-08
  0.959999979      -1.07080432E-07
  0.971000016       1.12260468E-08
  0.981999993       1.03513834E-07
  0.992999971       3.23960592E-08
   1.00399995       2.71857403E-09
   1.01499999       2.12336619E-08
   1.02600002      -5.82826800E-08
   1.03699994      -7.55669802E-08
   1.04799998       4.85994072E-08
   1.05900002       6.90959823E-08
   1.07000005      -5.58597435E-08
   1.08099997      -7.38997343E-08
   1.09200001       6.17673521E-08
   1.10300004       1.49626317E-07
   1.11399996       5.43824648E-08
   1.12500000      -1.46338564E-07
   1.13600004      -2.12334598E-07
   1.14699996      -4.12031689E-08
   1.15799999       1.31597503E-07
   1.16900003       8.86529534E-08
   1.17999995      -4.31674074E-08
   1.19099998      -7.05349095E-08
   1.20200002      -4.43972645E-08
   1.21300006      -6.17269507E-08
   1.22399998      -3.94530879E-08
   1.23500001       6.52429080E-08
   1.24600005       1.04967910E-07
   1.25699997       9.54592183E-10
   1.26800001      -1.00750647E-07
   1.27900004      -9.71718563E-08
   1.28999996      -5.03107955E-08
   1.30100000       1.29626221E-08
   1.31200004       8.97449937E-08
   1.32299995       7.65097212E-08
   1.33399999      -2.92450490E-08
   1.34500003      -5.67856446E-08
   1.35599995       1.92063681E-08
   1.36699998       3.91383956E-08
   1.37800002      -1.87020497E-08
   1.38900006      -2.94265643E-08
