 -0.959999979       0.00000000
 -0.925000012       0.00000000
 -0.889999986       1.45581436E-09
 -0.855000019       1.82019928E-08
 -0.819999993       2.89432887E-08
 -0.785000026       5.74302277E-08
 -0.750000000       1.58713291E-07
 -0.714999974       3.42658637E-07
 -0.680000007       7.74557634E-07
 -0.644999981       1.57725299E-06
 -0.610000014       2.64276468E-06
 -0.574999988       4.56747421E-06
 -0.540000021       8.51155164E-06
 -0.504999995       1.44679461E-05
 -0.469999999       2.20971633E-05
 -0.435000002       3.24646535E-05
 -0.400000006       4.57738242E-05
 -0.365000010       6.01833781E-05
 -0.330000013       7.57058806E-05
 -0.294999987       9.63775383E-05
 -0.259999990       1.32280431E-04
 -0.224999994       2.11180886E-04
 -0.189999998       3.94818286E-04
 -0.155000001       7.91563827E-04
 -0.119999997       1.57036015E-03
  -8.50000009E-02   2.97015370E-03
  -5.00000007E-02   5.28245140E-03
  -1.49999997E-02   8.79868679E-03
   1.99999996E-02   1.37264142E-02
   5.49999997E-02   2.00732443E-02
   9.00000036E-02   2.75163557E-02
  0.125000000       3.53067592E-02
  0.159999996       4.22543846E-02
  0.194999993       4.68208268E-02
  0.230000004       4.73349802E-02
  0.264999986       4.23114561E-02
  0.300000012       3.08003873E-02
  0.335000008       1.26825245E-02
  0.370000005      -1.11589227E-02
  0.405000001      -3.88388075E-02
  0.439999998      -6.76555708E-02
  0.474999994      -9.44225192E-02
  0.509999990     -0.115879864
  0.545000017     -0.129127860
  0.579999983     -0.132021844
  0.615000010     -0.123475194
  0.649999976     -0.103638090
  0.685000002      -7.39391446E-02
  0.720000029      -3.69832031E-02
  0.754999995       3.68949189E-03
  0.790000021       4.39663976E-02
  0.824999988       7.96242803E-02
  0.860000014      0.106857300
  0.894999981      0.122820489
  0.930000007      0.126105219
  0.964999974      0.117035076
   1.00000000       9.76740569E-02
   1.03499997       7.14882389E-02
   1.07000005       4.26891968E-02
   1.10500002       1.53961657E-02
   1.13999999      -7.15915812E-03
   1.17499995      -2.31562220E-02
   1.21000004      -3.22999135E-02
   1.24500000      -3.55314650E-02
   1.27999997      -3.44804116E-02
   1.31500006      -3.08817830E-02
   1.35000002      -2.61593200E-02
   1.38499999      -2.12633889E-02
   1.41999996      -1.67220924E-02
   1.45500004      -1.27844652E-02
   1.49000001      -9.53556318E-03
   1.52499998      -6.93040108E-03
   1.55999994      -4.77845827E-03
   1.59500003      -2.75904452E-03
   1.63000000      -5.26802440E-04
