 -0.800000012       0.00000000
 -0.788999975       0.00000000
 -0.777999997       0.00000000
 -0.767000020       0.00000000
 -0.755999982       0.00000000
 -0.745000005      -1.86506257E-12
 -0.734000027      -4.50966382E-11
 -0.722999990       2.12333096E-10
 -0.712000012      -2.37531328E-10
 -0.700999975      -8.19547319E-10
 -0.689999998       2.09493933E-09
 -0.679000020       8.22950430E-10
 -0.667999983      -6.75424516E-09
 -0.657000005       2.54648436E-09
 -0.646000028       1.23074573E-08
 -0.634999990      -1.18395054E-08
 -0.624000013      -1.14144996E-08
 -0.612999976       2.39219204E-08
 -0.601999998      -6.07151085E-09
 -0.591000021      -2.65174052E-08
 -0.579999983       4.08636147E-08
 -0.569000006       2.99983594E-10
 -0.558000028      -7.16043402E-08
 -0.546999991       6.70545006E-08
 -0.536000013       5.32597646E-08
 -0.524999976      -1.63386872E-07
 -0.513999999       5.30553095E-08
 -0.503000021       2.26932059E-07
 -0.492000014      -2.49595701E-07
 -0.481000006      -1.55339023E-07
 -0.469999999       4.83180827E-07
 -0.458999991      -1.40715684E-07
 -0.448000014      -6.68455357E-07
 -0.437000006       6.15135036E-07
 -0.425999999       6.63178071E-07
 -0.414999992      -1.08623829E-06
 -0.404000014      -3.22916122E-07
 -0.393000007       1.33434469E-06
 -0.381999999      -3.66009175E-07
 -0.370999992      -1.21836581E-06
 -0.360000014       1.13774013E-06
 -0.349000007       5.90338288E-07
 -0.338000000      -1.76459434E-06
 -0.326999992       3.41202650E-07
 -0.316000015       1.95425105E-06
 -0.305000007      -9.94896482E-07
 -0.294000000      -7.10591451E-07
 -0.282999992       2.96163580E-06
 -0.272000015       1.84944861E-06
 -0.261000007       1.21534299E-07
 -0.250000000       3.60576951E-06
 -0.238999993       5.54064127E-06
 -0.228000000       5.00280976E-06
 -0.216999993       9.11557618E-06
 -0.206000000       1.40460907E-05
 -0.194999993       1.58613875E-05
 -0.184000000       2.23565839E-05
 -0.172999993       3.36736921E-05
 -0.162000000       4.29805514E-05
 -0.150999993       5.61992965E-05
 -0.140000001       7.84532604E-05
 -0.128999993       1.02842292E-04
 -0.118000001       1.32467350E-04
 -0.107000001       1.77671405E-04
  -9.60000008E-02   2.33481740E-04
  -8.50000009E-02   2.96957500E-04
  -7.40000010E-02   3.82671424E-04
  -6.30000010E-02   4.95904300E-04
  -5.20000011E-02   6.29463291E-04
  -4.10000011E-02   7.92186300E-04
  -2.99999993E-02   9.99588170E-04
  -1.89999994E-02   1.25158066E-03
  -8.00000038E-03   1.55063835E-03
   3.00000003E-03   1.91373832E-03
   1.40000004E-02   2.35206285E-03
   2.50000004E-02   2.86893733E-03
   3.59999985E-02   3.47575126E-03
   4.69999984E-02   4.18838300E-03
   5.79999983E-02   5.01859561E-03
   6.89999983E-02   5.97603852E-03
   7.99999982E-02   7.06895953E-03
   9.09999982E-02   8.30710027E-03
  0.101999998       9.70254373E-03
  0.112999998       1.12583777E-02
  0.123999998       1.29699446E-02
  0.135000005       1.48393763E-02
  0.145999998       1.68642923E-02
  0.157000005       1.90213416E-02
  0.167999998       2.12846510E-02
  0.179000005       2.36349702E-02
  0.189999998       2.60329340E-02
  0.201000005       2.84162425E-02
  0.211999997       3.07254177E-02
  0.223000005       3.28966752E-02
  0.233999997       3.48381400E-02
  0.245000005       3.64406444E-02
  0.256000012       3.75956222E-02
  0.266999990       3.81847546E-02
  0.277999997       3.80682088E-02
  0.289000005       3.70931551E-02
  0.300000012       3.51058692E-02
  0.310999990       3.19518968E-02
  0.321999997       2.74688154E-02
  0.333000004       2.14896873E-02
  0.344000012       1.38610639E-02
  0.354999989       4.45038080E-03
  0.365999997      -6.86390558E-03
  0.377000004      -2.01867800E-02
  0.388000011      -3.55813242E-02
  0.398999989      -5.30615002E-02
  0.409999996      -7.26034120E-02
  0.421000004      -9.41336900E-02
  0.432000011     -0.117501386
  0.442999989     -0.142480090
  0.453999996     -0.168785766
  0.465000004     -0.196057975
  0.476000011     -0.223833442
  0.486999989     -0.251569718
  0.497999996     -0.278673470
  0.509000003     -0.304477572
  0.519999981     -0.328231066
  0.531000018     -0.349149913
  0.541999996     -0.366449028
  0.552999973     -0.379327446
  0.564000010     -0.386987895
  0.574999988     -0.388695568
  0.586000025     -0.383805722
  0.597000003     -0.371771276
  0.607999980     -0.352175415
  0.619000018     -0.324770570
  0.629999995     -0.289501965
  0.640999973     -0.246522143
  0.652000010     -0.196198389
  0.662999988     -0.139120564
  0.674000025      -7.61098713E-02
  0.685000002      -8.20445549E-03
  0.695999980       6.33729249E-02
  0.707000017      0.137232676
  0.717999995      0.211842626
  0.728999972      0.285588533
  0.740000010      0.356829375
  0.750999987      0.423924446
  0.762000024      0.485286206
  0.773000002      0.539461315
  0.783999979      0.585173666
  0.795000017      0.621339500
  0.805999994      0.647115409
  0.816999972      0.661954582
  0.828000009      0.665610194
  0.838999987      0.658121765
  0.850000024      0.639824510
  0.861000001      0.611347079
  0.871999979      0.573575079
  0.883000016      0.527612269
  0.893999994      0.474743783
  0.904999971      0.416388005
  0.916000009      0.354047269
  0.926999986      0.289261878
  0.938000023      0.223553836
  0.949000001      0.158372656
  0.959999979       9.50624645E-02
  0.971000016       3.48349102E-02
  0.981999993      -2.12676004E-02
  0.992999971      -7.23990127E-02
   1.00399995     -0.117913380
   1.01499999     -0.157359853
   1.02600002     -0.190484792
   1.03699994     -0.217229798
   1.04799998     -0.237708524
   1.05900002     -0.252176046
   1.07000005     -0.261013478
   1.08099997     -0.264708698
   1.09200001     -0.263818264
   1.10300004     -0.258937925
   1.11399996     -0.250693917
   1.12500000     -0.239721328
   1.13600004     -0.226628184
   1.14699996     -0.211980641
   1.15799999     -0.196307734
   1.16900003     -0.180090949
   1.17999995     -0.163741872
   1.19099998     -0.147599190
   1.20200002     -0.131946489
   1.21300006     -0.117018782
   1.22399998     -0.102986395
   1.23500001      -8.99513662E-02
   1.24600005      -7.79763237E-02
   1.25699997      -6.71040416E-02
   1.26800001      -5.73386252E-02
   1.27900004      -4.86359634E-02
   1.28999996      -4.09386232E-02
   1.30100000      -3.42002884E-02
   1.31200004      -2.83597726E-02
   1.32299995      -2.33243722E-02
   1.33399999      -1.90065354E-02
   1.34500003      -1.53467329E-02
   1.35599995      -1.22785708E-02
   1.36699998      -9.71254241E-03
   1.37800002      -7.57812010E-03
   1.38900006      -5.83719043E-03
