 -0.800000012       0.00000000
 -0.788999975       0.00000000
 -0.777999997      -4.60576302E-07
 -0.767000020       5.79920925E-06
 -0.755999982      -8.85847294E-06
 -0.745000005      -5.43655151E-05
 -0.734000027       1.00753357E-04
 -0.722999990       1.59679010E-04
 -0.712000012      -3.93759576E-04
 -0.700999975      -2.18424801E-04
 -0.689999998       9.29602247E-04
 -0.679000020       9.81538506E-07
 -0.667999983      -1.59216672E-03
 -0.657000005       5.58445929E-04
 -0.646000028       2.02727853E-03
 -0.634999990      -9.64702340E-04
 -0.624000013      -1.43218879E-03
 -0.612999976       4.19338234E-04
 -0.601999998      -1.39838026E-03
 -0.591000021       8.14966799E-04
 -0.579999983       6.47956040E-03
 -0.569000006      -1.32325746E-03
 -0.558000028      -1.14245992E-02
 -0.546999991       3.75289324E-04
 -0.536000013       1.34521732E-02
 -0.524999976       2.00334983E-03
 -0.513999999      -1.15294177E-02
 -0.503000021      -7.27464445E-03
 -0.492000014       2.57437001E-03
 -0.481000006       1.20042684E-02
 -0.469999999       1.38661414E-02
 -0.458999991      -5.53210266E-03
 -0.448000014      -2.24106163E-02
 -0.437000006      -5.01528149E-03
 -0.425999999       2.18448881E-02
 -0.414999992       2.22971458E-02
 -0.404000014       6.09440822E-03
 -0.393000007      -6.35437388E-03
 -0.381999999      -5.56078553E-03
 -0.370999992       1.56519078E-02
 -0.360000014       3.90792713E-02
 -0.349000007       3.62041630E-02
 -0.338000000       2.04774290E-02
 -0.326999992       2.37779114E-02
 -0.316000015       4.88964319E-02
 -0.305000007       8.82232115E-02
 -0.294000000      0.130763367
 -0.282999992      0.147232249
 -0.272000015      0.140189886
 -0.261000007      0.168889061
 -0.250000000      0.257704735
 -0.238999993      0.353930116
 -0.228000000      0.422099829
 -0.216999993      0.489239633
 -0.206000000      0.582695842
 -0.194999993      0.709876001
 -0.184000000      0.876643360
 -0.172999993       1.06389010
 -0.162000000       1.24058723
 -0.150999993       1.42232227
 -0.140000001       1.64777136
 -0.128999993       1.91373491
 -0.118000001       2.18963027
 -0.107000001       2.45761561
  -9.60000008E-02   2.71669436
  -8.50000009E-02   2.97681594
  -7.40000010E-02   3.23567390
  -6.30000010E-02   3.46610689
  -5.20000011E-02   3.64963126
  -4.10000011E-02   3.77647305
  -2.99999993E-02   3.81946778
  -1.89999994E-02   3.76628780
  -8.00000038E-03   3.61684942
   3.00000003E-03   3.32781720
   1.40000004E-02   2.86397767
   2.50000004E-02   2.24971175
   3.59999985E-02   1.47581613
   4.69999984E-02  0.492183834
   5.79999983E-02 -0.688184679
   6.89999983E-02  -2.04350662
   7.99999982E-02  -3.60346365
   9.09999982E-02  -5.33623934
  0.101999998      -7.16931677
  0.112999998      -9.11537075
  0.123999998      -11.1669617
  0.135000005      -13.2139072
  0.145999998      -15.1991138
  0.157000005      -17.1147556
  0.167999998      -18.8579941
  0.179000005      -20.3278828
  0.189999998      -21.5105515
  0.201000005      -22.3378716
  0.211999997      -22.6965199
  0.223000005      -22.5618134
  0.233999997      -21.9151554
  0.245000005      -20.6747150
  0.256000012      -18.8155518
  0.266999990      -16.3691349
  0.277999997      -13.3287563
  0.289000005      -9.70607567
  0.300000012      -5.57586527
  0.310999990      -1.00033033
  0.321999997       3.96648240
  0.333000004       9.22370529
  0.344000012       14.6507778
  0.354999989       20.1280117
  0.365999997       25.5125904
  0.377000004       30.6540298
  0.388000011       35.4166031
  0.398999989       39.6671944
  0.409999996       43.2709427
  0.421000004       46.0912514
  0.432000011       48.0028687
  0.442999989       48.9064407
  0.453999996       48.7283363
  0.465000004       47.4150200
  0.476000011       44.9580040
  0.486999989       41.3877373
  0.497999996       36.7415276
  0.509000003       31.0890522
  0.519999981       24.5646954
  0.531000018       17.3289394
  0.541999996       9.54707050
  0.552999973       1.42254400
  0.564000010      -6.80340147
  0.574999988      -14.8987436
  0.586000025      -22.6490555
  0.597000003      -29.8284302
  0.607999980      -36.2149963
  0.619000018      -41.6314201
  0.629999995      -45.9366493
  0.640999973      -49.0060005
  0.652000010      -50.7591057
  0.662999988      -51.1829758
  0.674000025      -50.3015900
  0.685000002      -48.1704750
  0.695999980      -44.9022141
  0.707000017      -40.6464691
  0.717999995      -35.5621338
  0.728999972      -29.8420124
  0.740000010      -23.7063847
  0.750999987      -17.3613605
  0.762000024      -11.0016842
  0.773000002      -4.82911396
  0.783999979      0.978057086
  0.795000017       6.27589750
  0.805999994       10.9365578
  0.816999972       14.8695154
  0.828000009       18.0357800
  0.838999987       20.4173298
  0.850000024       22.0086918
  0.861000001       22.8399830
  0.871999979       22.9734020
  0.883000016       22.4848862
  0.893999994       21.4625645
  0.904999971       20.0082321
  0.916000009       18.2277927
  0.926999986       16.2158070
  0.938000023       14.0568237
  0.949000001       11.8422813
  0.959999979       9.65917969
  0.971000016       7.56385517
  0.981999993       5.59900618
  0.992999971       3.81341982
   1.00399995       2.23290801
   1.01499999      0.859768987
   1.02600002     -0.288387924
   1.03699994      -1.20024717
   1.04799998      -1.90846217
   1.05900002      -2.44647479
   1.07000005      -2.81607747
   1.08099997      -3.03063774
   1.09200001      -3.12249112
   1.10300004      -3.10863233
   1.11399996      -3.00927258
   1.12500000      -2.86149859
   1.13600004      -2.68130112
   1.14699996      -2.46727777
   1.15799999      -2.23454094
   1.16900003      -1.99890077
   1.17999995      -1.76708686
   1.19099998      -1.55450392
   1.20200002      -1.36419952
   1.21300006      -1.17847431
   1.22399998     -0.999895453
   1.23500001     -0.844376504
   1.24600005     -0.707746267
   1.25699997     -0.590685964
   1.26800001     -0.501212060
   1.27900004     -0.418626308
   1.28999996     -0.328561813
   1.30100000     -0.255552977
   1.31200004     -0.207188398
   1.32299995     -0.163801670
   1.33399999     -0.127224177
   1.34500003      -9.91520733E-02
   1.35599995      -6.36762232E-02
   1.36699998      -3.25387642E-02
   1.37800002      -2.32314970E-02
   1.38900006      -1.46357855E-02
