 -0.800000012       0.00000000
 -0.788999975       0.00000000
 -0.777999997       4.60576217E-07
 -0.767000020      -5.79920834E-06
 -0.755999982       8.85847112E-06
 -0.745000005       5.43654969E-05
 -0.734000027      -1.00753292E-04
 -0.722999990      -1.59679083E-04
 -0.712000012       3.93759488E-04
 -0.700999975       2.18424946E-04
 -0.689999998      -9.29602189E-04
 -0.679000020      -9.81865014E-07
 -0.667999983       1.59216719E-03
 -0.657000005      -5.58446103E-04
 -0.646000028      -2.02727877E-03
 -0.634999990       9.64702456E-04
 -0.624000013       1.43218786E-03
 -0.612999976      -4.19337448E-04
 -0.601999998       1.39838038E-03
 -0.591000021      -8.14965169E-04
 -0.579999983      -6.47955993E-03
 -0.569000006       1.32325036E-03
 -0.558000028       1.14245974E-02
 -0.546999991      -3.75272764E-04
 -0.536000013      -1.34521751E-02
 -0.524999976      -2.00337148E-03
 -0.513999999       1.15294205E-02
 -0.503000021       7.27466866E-03
 -0.492000014      -2.57437071E-03
 -0.481000006      -1.20042795E-02
 -0.469999999      -1.38661386E-02
 -0.458999991       5.53208450E-03
 -0.448000014       2.24106051E-02
 -0.437000006       5.01532434E-03
 -0.425999999      -2.18448192E-02
 -0.414999992      -2.22972240E-02
 -0.404000014      -6.09449903E-03
 -0.393000007       6.35440554E-03
 -0.381999999       5.56079531E-03
 -0.370999992      -1.56516973E-02
 -0.360000014      -3.90789956E-02
 -0.349000007      -3.62049527E-02
 -0.338000000      -2.04780828E-02
 -0.326999992      -2.37759687E-02
 -0.316000015      -4.88956198E-02
 -0.305000007      -8.82260203E-02
 -0.294000000     -0.130764961
 -0.282999992     -0.147229671
 -0.272000015     -0.140186727
 -0.261000007     -0.168889090
 -0.250000000     -0.257709950
 -0.238999993     -0.353936970
 -0.228000000     -0.422094852
 -0.216999993     -0.489224344
 -0.206000000     -0.582697451
 -0.194999993     -0.709900558
 -0.184000000     -0.876646340
 -0.172999993      -1.06385684
 -0.162000000      -1.24057138
 -0.150999993      -1.42236102
 -0.140000001      -1.64781523
 -0.128999993      -1.91371775
 -0.118000001      -2.18954110
 -0.107000001      -2.45759583
  -9.60000008E-02  -2.71678567
  -8.50000009E-02  -2.97689605
  -7.40000010E-02  -3.23560524
  -6.30000010E-02  -3.46602869
  -5.20000011E-02  -3.64965868
  -4.10000011E-02  -3.77651072
  -2.99999993E-02  -3.81948256
  -1.89999994E-02  -3.76622486
  -8.00000038E-03  -3.61679173
   3.00000003E-03  -3.32785773
   1.40000004E-02  -2.86407852
   2.50000004E-02  -2.24975157
   3.59999985E-02  -1.47574639
   4.69999984E-02 -0.492089778
   5.79999983E-02  0.688142121
   6.89999983E-02   2.04337549
   7.99999982E-02   3.60344768
   9.09999982E-02   5.33631706
  0.101999998       7.16938686
  0.112999998       9.11531448
  0.123999998       11.1669302
  0.135000005       13.2139988
  0.145999998       15.1992788
  0.157000005       17.1147766
  0.167999998       18.8577785
  0.179000005       20.3276653
  0.189999998       21.5106621
  0.201000005       22.3381195
  0.211999997       22.6965942
  0.223000005       22.5616570
  0.233999997       21.9148579
  0.245000005       20.6747627
  0.256000012       18.8156834
  0.266999990       16.3691807
  0.277999997       13.3289099
  0.289000005       9.70646000
  0.300000012       5.57559633
  0.310999990      0.999694943
  0.321999997      -3.96670866
  0.333000004      -9.22311401
  0.344000012      -14.6504421
  0.354999989      -20.1281853
  0.365999997      -25.5127487
  0.377000004      -30.6541500
  0.388000011      -35.4163628
  0.398999989      -39.6670036
  0.409999996      -43.2709427
  0.421000004      -46.0921516
  0.432000011      -48.0027351
  0.442999989      -48.9058380
  0.453999996      -48.7282486
  0.465000004      -47.4152718
  0.476000011      -44.9579773
  0.486999989      -41.3876724
  0.497999996      -36.7419090
  0.509000003      -31.0896130
  0.519999981      -24.5638580
  0.531000018      -17.3275223
  0.541999996      -9.54717445
  0.552999973      -1.42388296
  0.564000010       6.80235863
  0.574999988       14.8988295
  0.586000025       22.6496353
  0.597000003       29.8293686
  0.607999980       36.2157669
  0.619000018       41.6306953
  0.629999995       45.9353561
  0.640999973       49.0057220
  0.652000010       50.7600250
  0.662999988       51.1832733
  0.674000025       50.3016434
  0.685000002       48.1705589
  0.695999980       44.9023628
  0.707000017       40.6458244
  0.717999995       35.5618515
  0.728999972       29.8429127
  0.740000010       23.7070923
  0.750999987       17.3600807
  0.762000024       11.0006208
  0.773000002       4.82954073
  0.783999979     -0.977020085
  0.795000017      -6.27511406
  0.805999994      -10.9363832
  0.816999972      -14.8702831
  0.828000009      -18.0370007
  0.838999987      -20.4178047
  0.850000024      -22.0076237
  0.861000001      -22.8383179
  0.871999979      -22.9734325
  0.883000016      -22.4865360
  0.893999994      -21.4634666
  0.904999971      -20.0080357
  0.916000009      -18.2273331
  0.926999986      -16.2147121
  0.938000023      -14.0560808
  0.949000001      -11.8435278
  0.959999979      -9.66040039
  0.971000016      -7.56289959
  0.981999993      -5.59799767
  0.992999971      -3.81400084
   1.00399995      -2.23336196
   1.01499999     -0.859534740
   1.02600002      0.288361371
   1.03699994       1.19999301
   1.04799998       1.90867400
   1.05900002       2.44669724
   1.07000005       2.81568956
   1.08099997       3.03013873
   1.09200001       3.12295604
   1.10300004       3.10976243
   1.11399996       3.00921965
   1.12500000       2.86004472
   1.13600004       2.68059969
   1.14699996       2.46792722
   1.15799999       2.23529696
   1.16900003       1.99964404
   1.17999995       1.76762116
   1.19099998       1.55364442
   1.20200002       1.36279440
   1.21300006       1.17839229
   1.22399998       1.00048387
   1.23500001      0.844631732
   1.24600005      0.708411276
   1.25699997      0.591354251
   1.26800001      0.500414312
   1.27900004      0.417269975
   1.28999996      0.328617901
   1.30100000      0.256569684
   1.31200004      0.207491845
   1.32299995      0.163506180
   1.33399999      0.127448365
   1.34500003       9.94260535E-02
   1.35599995       6.28329664E-02
   1.36699998       3.14984471E-02
   1.37800002       2.36725491E-02
   1.38900006       1.58426687E-02
