 -0.800000012       0.00000000
 -0.788999975       0.00000000
 -0.777999997       0.00000000
 -0.767000020       0.00000000
 -0.755999982       0.00000000
 -0.745000005      -2.87178891E-13
 -0.734000027       1.37521721E-12
 -0.722999990      -5.88009459E-12
 -0.712000012       1.16918688E-11
 -0.700999975       5.23368501E-12
 -0.689999998      -6.66818059E-11
 -0.679000020       9.22594848E-11
 -0.667999983       9.21086263E-11
 -0.657000005      -4.20618124E-10
 -0.646000028       2.29864100E-10
 -0.634999990       9.32484645E-10
 -0.624000013      -1.34599509E-09
 -0.612999976      -1.22790444E-09
 -0.601999998       3.06078185E-09
 -0.591000021       1.02833919E-09
 -0.579999983      -3.06848746E-09
 -0.569000006      -1.60113622E-09
 -0.558000028      -4.71425965E-09
 -0.546999991       6.66488997E-09
 -0.536000013       3.03552667E-08
 -0.524999976      -1.94352339E-08
 -0.513999999      -8.32556282E-08
 -0.503000021       3.38748407E-08
 -0.492000014       1.57691730E-07
 -0.481000006      -2.83835142E-08
 -0.469999999      -2.10878667E-07
 -0.458999991      -1.82446804E-08
 -0.448000014       1.57168202E-07
 -0.437000006       7.72821309E-08
 -0.425999999       7.30832070E-08
 -0.414999992      -3.66820991E-08
 -0.404000014      -3.98785232E-07
 -0.393000007      -1.91836591E-07
 -0.381999999       5.43410465E-07
 -0.370999992       4.30359421E-07
 -0.360000014      -3.78094256E-07
 -0.349000007      -3.80862986E-07
 -0.338000000       2.37421972E-07
 -0.326999992       3.80021817E-07
 -0.316000015       5.32074544E-08
 -0.305000007      -6.07473680E-07
 -0.294000000      -1.37595919E-06
 -0.282999992      -1.45152967E-06
 -0.272000015      -1.63810932E-06
 -0.261000007      -3.54164240E-06
 -0.250000000      -5.76829552E-06
 -0.238999993      -6.57746159E-06
 -0.228000000      -8.27428994E-06
 -0.216999993      -1.30332483E-05
 -0.206000000      -1.92130410E-05
 -0.194999993      -2.58545260E-05
 -0.184000000      -3.44634900E-05
 -0.172999993      -4.58693030E-05
 -0.162000000      -6.13790035E-05
 -0.150999993      -8.37669722E-05
 -0.140000001      -1.13360293E-04
 -0.128999993      -1.49127387E-04
 -0.118000001      -1.94144493E-04
 -0.107000001      -2.53601931E-04
  -9.60000008E-02  -3.30319162E-04
  -8.50000009E-02  -4.27040824E-04
  -7.40000010E-02  -5.48340497E-04
  -6.30000010E-02  -6.98867370E-04
  -5.20000011E-02  -8.84804584E-04
  -4.10000011E-02  -1.11487135E-03
  -2.99999993E-02  -1.39663368E-03
  -1.89999994E-02  -1.73688610E-03
  -8.00000038E-03  -2.14606035E-03
   3.00000003E-03  -2.63637654E-03
   1.40000004E-02  -3.21824360E-03
   2.50000004E-02  -3.90264578E-03
   3.59999985E-02  -4.70192311E-03
   4.69999984E-02  -5.62699512E-03
   5.79999983E-02  -6.68910937E-03
   6.89999983E-02  -7.90101010E-03
   7.99999982E-02  -9.27152578E-03
   9.09999982E-02  -1.08042378E-02
  0.101999998      -1.25024160E-02
  0.112999998      -1.43679054E-02
  0.123999998      -1.63961742E-02
  0.135000005      -1.85769610E-02
  0.145999998      -2.08948497E-02
  0.157000005      -2.33264919E-02
  0.167999998      -2.58417167E-02
  0.179000005      -2.84054391E-02
  0.189999998      -3.09743751E-02
  0.201000005      -3.34959514E-02
  0.211999997      -3.59120555E-02
  0.223000005      -3.81595157E-02
  0.233999997      -4.01689075E-02
  0.245000005      -4.18676361E-02
  0.256000012      -4.31824587E-02
  0.266999990      -4.40388769E-02
  0.277999997      -4.43635769E-02
  0.289000005      -4.40891162E-02
  0.300000012      -4.31553759E-02
  0.310999990      -4.15100083E-02
  0.321999997      -3.91115397E-02
  0.333000004      -3.59317660E-02
  0.344000012      -3.19559276E-02
  0.354999989      -2.71841250E-02
  0.365999997      -2.16336548E-02
  0.377000004      -1.53383156E-02
  0.388000011      -8.34616646E-03
  0.398999989      -7.19712931E-04
  0.409999996       7.46428454E-03
  0.421000004       1.61181223E-02
  0.432000011       2.51450874E-02
  0.442999989       3.44393738E-02
  0.453999996       4.38892134E-02
  0.465000004       5.33810556E-02
  0.476000011       6.27999604E-02
  0.486999989       7.20302239E-02
  0.497999996       8.09580609E-02
  0.509000003       8.94715339E-02
  0.519999981       9.74600390E-02
  0.531000018      0.104816668
  0.541999996      0.111438423
  0.552999973      0.117223367
  0.564000010      0.122070976
  0.574999988      0.125883996
  0.586000025      0.128567949
  0.597000003      0.130031019
  0.607999980      0.130186588
  0.619000018      0.128954723
  0.629999995      0.126264244
  0.640999973      0.122056834
  0.652000010      0.116291158
  0.662999988      0.108946584
  0.674000025      0.100027308
  0.685000002       8.95658955E-02
  0.695999980       7.76269585E-02
  0.707000017       6.43108487E-02
  0.717999995       4.97555435E-02
  0.728999972       3.41366976E-02
  0.740000010       1.76665559E-02
  0.750999987       5.91069518E-04
  0.762000024      -1.68146174E-02
  0.773000002      -3.42514925E-02
  0.783999979      -5.14037497E-02
  0.795000017      -6.79477453E-02
  0.805999994      -8.35616291E-02
  0.816999972      -9.79356095E-02
  0.828000009     -0.110782400
  0.838999987     -0.121846125
  0.850000024     -0.130910859
  0.861000001     -0.137808755
  0.871999979     -0.142425880
  0.883000016     -0.144705832
  0.893999994     -0.144651964
  0.904999971     -0.142326593
  0.916000009     -0.137847796
  0.926999986     -0.131384969
  0.938000023     -0.123152792
  0.949000001     -0.113403730
  0.959999979     -0.102418490
  0.971000016      -9.04946327E-02
  0.981999993      -7.79367462E-02
  0.992999971      -6.50483221E-02
   1.00399995      -5.21223098E-02
   1.01499999      -3.94317247E-02
   1.02600002      -2.72235349E-02
   1.03699994      -1.57126896E-02
   1.04799998      -5.07661887E-03
   1.05900002       4.54578130E-03
   1.07000005       1.30536901E-02
   1.08099997       2.03853659E-02
   1.09200001       2.65163947E-02
   1.10300004       3.14553268E-02
   1.11399996       3.52405906E-02
   1.12500000       3.79361175E-02
   1.13600004       3.96248102E-02
   1.14699996       4.04046364E-02
   1.15799999       4.03853618E-02
   1.16900003       3.96819785E-02
   1.17999995       3.84093821E-02
   1.19099998       3.66804898E-02
   1.20200002       3.46027985E-02
   1.21300006       3.22748832E-02
   1.22399998       2.97865253E-02
   1.23500001       2.72181164E-02
   1.24600005       2.46377606E-02
   1.25699997       2.21009776E-02
   1.26800001       1.96526572E-02
   1.27900004       1.73274502E-02
   1.28999996       1.51502807E-02
   1.30100000       1.31381992E-02
   1.31200004       1.13010304E-02
   1.32299995       9.64179263E-03
   1.33399999       8.15885141E-03
   1.34500003       6.84724795E-03
   1.35599995       5.69837308E-03
   1.36699998       4.70111892E-03
   1.37800002       3.84373381E-03
   1.38900006       3.11365793E-03
