 -0.800000012       0.00000000
 -0.788999975       0.00000000
 -0.777999997       0.00000000
 -0.767000020       0.00000000
 -0.755999982      -8.47755685E-11
 -0.745000005      -2.04984718E-09
 -0.734000027       9.73628023E-09
 -0.722999990      -8.74703243E-09
 -0.712000012      -4.69036507E-08
 -0.700999975       1.06021375E-07
 -0.689999998       7.46589706E-08
 -0.679000020      -4.02235599E-07
 -0.667999983       7.83425662E-08
 -0.657000005       8.66440928E-07
 -0.646000028      -6.53908842E-07
 -0.634999990      -1.07827043E-06
 -0.624000013       1.62551987E-06
 -0.612999976       2.42862569E-07
 -0.601999998      -2.29269722E-06
 -0.591000021       2.13341559E-06
 -0.579999983       1.21897347E-06
 -0.569000006      -5.11217968E-06
 -0.558000028       3.03429556E-06
 -0.546999991       5.67563802E-06
 -0.536000013      -1.04746105E-05
 -0.524999976      -9.28934885E-09
 -0.513999999       1.77417696E-05
 -0.503000021      -1.37568713E-05
 -0.492000014      -1.73759527E-05
 -0.481000006       3.33080388E-05
 -0.469999999       6.64681806E-07
 -0.458999991      -5.23471099E-05
 -0.448000014       3.43568863E-05
 -0.437000006       6.05287860E-05
 -0.425999999      -7.73351785E-05
 -0.414999992      -4.48224891E-05
 -0.404000014       1.10026471E-04
 -0.393000007      -1.95863640E-06
 -0.381999999      -1.16032097E-04
 -0.370999992       6.83518811E-05
 -0.360000014       8.22134025E-05
 -0.349000007      -1.31923574E-04
 -0.338000000      -1.13237002E-05
 -0.326999992       1.69037346E-04
 -0.316000015      -6.07324437E-05
 -0.305000007      -1.21128047E-04
 -0.294000000       1.79842551E-04
 -0.282999992       1.16364638E-04
 -0.272000015      -1.29094595E-04
 -0.261000007       7.98328692E-05
 -0.250000000       2.46320822E-04
 -0.238999993       6.35026736E-05
 -0.228000000       1.62499971E-04
 -0.216999993       4.11056302E-04
 -0.206000000       3.06625589E-04
 -0.194999993       3.77753458E-04
 -0.184000000       8.09650286E-04
 -0.172999993       9.37446603E-04
 -0.162000000       1.02389185E-03
 -0.150999993       1.61240331E-03
 -0.140000001       2.12013698E-03
 -0.128999993       2.45518191E-03
 -0.118000001       3.40132113E-03
 -0.107000001       4.59155766E-03
  -9.60000008E-02   5.42209437E-03
  -8.50000009E-02   6.78137224E-03
  -7.40000010E-02   9.04304255E-03
  -6.30000010E-02   1.12177711E-02
  -5.20000011E-02   1.34673519E-02
  -4.10000011E-02   1.68239325E-02
  -2.99999993E-02   2.08815802E-02
  -1.89999994E-02   2.50476170E-02
  -8.00000038E-03   3.00980266E-02
   3.00000003E-03   3.64284962E-02
   1.40000004E-02   4.34182361E-02
   2.50000004E-02   5.10766692E-02
   3.59999985E-02   5.99747635E-02
   4.69999984E-02   7.01293796E-02
   5.79999983E-02   8.12570229E-02
   6.89999983E-02   9.31982845E-02
   7.99999982E-02  0.105957359
   9.09999982E-02  0.119708344
  0.101999998      0.134149015
  0.112999998      0.148518294
  0.123999998      0.162772685
  0.135000005      0.177016035
  0.145999998      0.190089777
  0.157000005      0.200925350
  0.167999998      0.209709510
  0.179000005      0.215830490
  0.189999998      0.217331007
  0.201000005      0.213295028
  0.211999997      0.203655705
  0.223000005      0.186941892
  0.233999997      0.161090717
  0.245000005      0.125340775
  0.256000012       7.92764276E-02
  0.266999990       2.14803927E-02
  0.277999997      -4.96178083E-02
  0.289000005     -0.134651497
  0.300000012     -0.233693600
  0.310999990     -0.347139686
  0.321999997     -0.475555837
  0.333000004     -0.618532956
  0.344000012     -0.774512589
  0.354999989     -0.942045987
  0.365999997      -1.11987257
  0.377000004      -1.30533457
  0.388000011      -1.49430358
  0.398999989      -1.68282413
  0.409999996      -1.86691678
  0.421000004      -2.04081321
  0.432000011      -2.19756627
  0.442999989      -2.33111167
  0.453999996      -2.43535542
  0.465000004      -2.50216651
  0.476000011      -2.52326536
  0.486999989      -2.49272871
  0.497999996      -2.40489483
  0.509000003      -2.25261450
  0.519999981      -2.03056955
  0.531000018      -1.73718631
  0.541999996      -1.37170088
  0.552999973     -0.933580518
  0.564000010     -0.425822079
  0.574999988      0.144645378
  0.586000025      0.769280970
  0.597000003       1.43774104
  0.607999980       2.13640499
  0.619000018       2.84879136
  0.629999995       3.55673432
  0.640999973       4.24107504
  0.652000010       4.88190460
  0.662999988       5.45856905
  0.674000025       5.95072126
  0.685000002       6.34012604
  0.695999980       6.61078596
  0.707000017       6.74862623
  0.717999995       6.74344635
  0.728999972       6.59030628
  0.740000010       6.28799629
  0.750999987       5.83893728
  0.762000024       5.25166464
  0.773000002       4.54034615
  0.783999979       3.72174644
  0.795000017       2.81552887
  0.805999994       1.84613264
  0.816999972      0.840676844
  0.828000009     -0.174203038
  0.838999987      -1.17206860
  0.850000024      -2.12613273
  0.861000001      -3.01135659
  0.871999979      -3.80613565
  0.883000016      -4.49231720
  0.893999994      -5.05564117
  0.904999971      -5.48622751
  0.916000009      -5.77846909
  0.926999986      -5.93149424
  0.938000023      -5.94950438
  0.949000001      -5.84053850
  0.959999979      -5.61534309
  0.971000016      -5.28770065
  0.981999993      -4.87427568
  0.992999971      -4.39301682
   1.00399995      -3.86185646
   1.01499999      -3.29868937
   1.02600002      -2.72136307
   1.03699994      -2.14653325
   1.04799998      -1.58846414
   1.05900002      -1.05932212
   1.07000005     -0.569667995
   1.08099997     -0.127487406
   1.09200001      0.262305498
   1.10300004      0.596558452
   1.11399996      0.873484910
   1.12500000       1.09390259
   1.13600004       1.26094508
   1.14699996       1.37820268
   1.15799999       1.44952273
   1.16900003       1.48025596
   1.17999995       1.47690499
   1.19099998       1.44526124
   1.20200002       1.39001954
   1.21300006       1.31635749
   1.22399998       1.23034000
   1.23500001       1.13683081
   1.24600005       1.03850782
   1.25699997      0.938071251
   1.26800001      0.839471757
   1.27900004      0.745458364
   1.28999996      0.656144619
   1.30100000      0.571754456
   1.31200004      0.494374245
   1.32299995      0.425154656
   1.33399999      0.362615287
   1.34500003      0.305822045
   1.35599995      0.256106228
   1.36699998      0.213647470
   1.37800002      0.176140383
   1.38900006      0.142625749
