 -0.800000012       0.00000000
 -0.788999975       0.00000000
 -0.777999997       0.00000000
 -0.767000020       8.52484756E-26
 -0.755999982       1.78075094E-23
 -0.745000005       5.32374395E-15
 -0.734000027      -1.50697122E-14
 -0.722999990      -2.60626617E-14
 -0.712000012       2.22230505E-13
 -0.700999975      -1.44594829E-12
 -0.689999998       3.27875726E-12
 -0.679000020       3.06629461E-12
 -0.667999983      -2.15029279E-11
 -0.657000005       1.32942650E-11
 -0.646000028       5.24378353E-11
 -0.634999990      -8.13196663E-11
 -0.624000013      -1.36360584E-11
 -0.612999976       1.45056619E-10
 -0.601999998      -1.62262495E-10
 -0.591000021      -6.07257994E-11
 -0.579999983       4.84056295E-10
 -0.569000006      -4.88769969E-10
 -0.558000028      -6.74308276E-10
 -0.546999991       1.78479509E-09
 -0.536000013       1.69045819E-10
 -0.524999976      -3.78218656E-09
 -0.513999999       1.60445301E-09
 -0.503000021       5.31550626E-09
 -0.492000014      -3.54876262E-09
 -0.481000006      -5.21081800E-09
 -0.469999999       1.23028443E-09
 -0.458999991       6.36378417E-09
 -0.448000014       9.48748990E-09
 -0.437000006      -1.40947227E-08
 -0.425999999      -3.08993968E-08
 -0.414999992       3.96304074E-08
 -0.404000014       5.33835554E-08
 -0.393000007      -8.72519905E-08
 -0.381999999      -6.33883488E-08
 -0.370999992       1.44874363E-07
 -0.360000014       5.63549492E-08
 -0.349000007      -1.76072419E-07
 -0.338000000      -7.54316218E-08
 -0.326999992       1.52393952E-07
 -0.316000015       2.19836835E-07
 -0.305000007      -9.97457406E-08
 -0.294000000      -5.48900232E-07
 -0.282999992       1.09642230E-07
 -0.272000015       9.74184218E-07
 -0.261000007      -3.29080848E-07
 -0.250000000      -1.32561058E-06
 -0.238999993       8.84133385E-07
 -0.228000000       1.45037905E-06
 -0.216999993      -1.68112217E-06
 -0.206000000      -1.18150365E-06
 -0.194999993       2.57670877E-06
 -0.184000000       2.35786928E-07
 -0.172999993      -3.70635621E-06
 -0.162000000       1.27433157E-06
 -0.150999993       5.31058049E-06
 -0.140000001      -2.68034387E-06
 -0.128999993      -7.12145493E-06
 -0.118000001       3.77794845E-06
 -0.107000001       8.32595924E-06
  -9.60000008E-02  -5.78214394E-06
  -8.50000009E-02  -8.85951340E-06
  -7.40000010E-02   1.04625815E-05
  -6.30000010E-02   9.62274953E-06
  -5.20000011E-02  -1.52161738E-05
  -4.10000011E-02  -9.38328139E-06
  -2.99999993E-02   1.60932414E-05
  -1.89999994E-02   5.98692964E-07
  -8.00000038E-03  -1.44821661E-05
   3.00000003E-03   1.10756446E-05
   1.40000004E-02   1.30825310E-05
   2.50000004E-02  -1.40761231E-05
   3.59999985E-02   3.15803140E-06
   4.69999984E-02   9.80518507E-06
   5.79999983E-02  -3.79187695E-05
   6.89999983E-02  -2.20384336E-05
   7.99999982E-02   6.67042477E-05
   9.09999982E-02   5.00858987E-05
  0.101999998      -5.27718839E-05
  0.112999998      -6.72488459E-05
  0.123999998       1.69997056E-05
  0.135000005       4.41694647E-05
  0.145999998      -1.80945062E-05
  0.157000005       2.77376184E-05
  0.167999998       7.03778933E-05
  0.179000005      -1.17938856E-04
  0.189999998      -1.88698701E-04
  0.201000005       2.10755185E-04
  0.211999997       3.13715806E-04
  0.223000005      -2.44742841E-04
  0.233999997      -4.03174927E-04
  0.245000005       2.50334822E-04
  0.256000012       3.92097223E-04
  0.266999990      -2.29307567E-04
  0.277999997      -2.81156535E-04
  0.289000005       2.28061850E-04
  0.300000012       1.31301698E-04
  0.310999990      -2.48472992E-04
  0.321999997      -4.57974056E-05
  0.333000004       2.36588327E-04
  0.344000012      -4.41821830E-05
  0.354999989      -2.61498935E-04
  0.365999997       1.53205823E-04
  0.377000004       4.02556994E-04
  0.388000011      -1.48430088E-04
  0.398999989      -5.02768031E-04
  0.409999996       1.09744644E-04
  0.421000004       5.46557596E-04
  0.432000011      -2.30177160E-04
  0.442999989      -5.44342620E-04
  0.453999996       4.07072424E-04
  0.465000004       3.94500967E-04
  0.476000011      -5.24165167E-04
  0.486999989      -2.66420597E-04
  0.497999996       6.57444121E-04
  0.509000003       5.02181822E-04
  0.519999981      -4.50295920E-04
  0.531000018      -9.62391379E-04
  0.541999996      -4.62743861E-04
  0.552999973       9.09297436E-04
  0.564000010       1.12879183E-03
  0.574999988      -2.35378538E-04
  0.586000025      -8.03306582E-04
  0.597000003       3.23934291E-05
  0.607999980      -2.87537823E-05
  0.619000018      -4.62740252E-04
  0.629999995       5.02790150E-04
  0.640999973       1.05757371E-03
  0.652000010      -4.19351330E-04
  0.662999988      -1.53562217E-03
  0.674000025      -1.23663180E-04
  0.685000002       1.55322300E-03
  0.695999980       6.85311970E-04
  0.707000017      -1.15111680E-03
  0.717999995      -5.68734889E-04
  0.728999972       5.80328284E-04
  0.740000010       2.50677636E-04
  0.750999987      -3.78813740E-04
  0.762000024      -3.77601973E-05
  0.773000002       6.16027508E-04
  0.783999979      -2.88844254E-04
  0.795000017      -5.33896382E-04
  0.805999994       1.20941186E-04
  0.816999972       5.18651446E-04
  0.828000009      -1.51703149E-04
  0.838999987      -7.98853813E-04
  0.850000024       5.39526925E-04
  0.861000001       1.45174842E-03
  0.871999979      -3.14367062E-04
  0.883000016      -1.77697733E-03
  0.893999994       7.13432246E-06
  0.904999971       1.33859087E-03
  0.916000009      -6.69028668E-04
  0.926999986      -1.59655267E-03
  0.938000023       1.01191085E-03
  0.949000001       2.46885163E-03
  0.959999979       5.47649870E-05
  0.971000016      -2.38991436E-03
  0.981999993      -1.26906054E-03
  0.992999971       1.56223425E-03
   1.00399995       1.89653039E-03
   1.01499999      -7.87185039E-04
   1.02600002      -1.93530973E-03
   1.03699994       7.68749960E-05
   1.04799998       1.25798630E-03
   1.05900002       4.75062261E-04
   1.07000005      -1.43043682E-04
   1.08099997      -5.67030918E-04
   1.09200001      -7.96806999E-04
   1.10300004       3.03853303E-04
   1.11399996       6.53407420E-04
   1.12500000      -2.26923890E-04
   1.13600004      -4.99096859E-05
   1.14699996       7.43407698E-04
   1.15799999       2.36301305E-04
   1.16900003      -5.59340813E-04
   1.17999995      -5.53704449E-04
   1.19099998      -6.43069623E-04
   1.20200002      -2.99053499E-04
   1.21300006       1.06225116E-03
   1.22399998       1.18364929E-03
   1.23500001      -4.98328416E-04
   1.24600005      -7.44440651E-04
   1.25699997       5.38584543E-04
   1.26800001       2.30543865E-05
   1.27900004      -1.43884984E-03
   1.28999996      -2.86181690E-04
   1.30100000       1.88451528E-03
   1.31200004       1.03793910E-03
   1.32299995      -1.21288968E-03
   1.33399999      -9.77218966E-04
   1.34500003       5.37695771E-04
   1.35599995       2.69054726E-04
   1.36699998      -7.46092584E-04
   1.37800002      -2.56718660E-04
   1.38900006       1.05279475E-03
