 -0.800000012       0.00000000
 -0.788999975       0.00000000
 -0.777999997       0.00000000
 -0.767000020       0.00000000
 -0.755999982      -1.03150649E-29
 -0.745000005      -4.23976028E-27
 -0.734000027      -9.24973006E-20
 -0.722999990       1.08746519E-18
 -0.712000012      -4.52673639E-18
 -0.700999975      -3.00299319E-17
 -0.689999998       8.56985187E-17
 -0.679000020      -1.05357452E-16
 -0.667999983      -4.31137282E-16
 -0.657000005       1.05800027E-15
 -0.646000028       1.70104134E-16
 -0.634999990      -4.43478796E-15
 -0.624000013       3.86242916E-15
 -0.612999976       1.04873851E-14
 -0.601999998      -1.91176607E-14
 -0.591000021      -7.92901189E-15
 -0.579999983       4.07790223E-14
 -0.569000006      -1.73498030E-14
 -0.558000028      -5.74023793E-14
 -0.546999991       7.82006431E-14
 -0.536000013       5.81402941E-14
 -0.524999976      -1.76767590E-13
 -0.513999999      -3.06946885E-14
 -0.503000021       2.95569504E-13
 -0.492000014       6.81541683E-14
 -0.481000006      -3.84261741E-13
 -0.469999999      -2.74111571E-13
 -0.458999991       6.96794239E-13
 -0.448000014       8.67399902E-13
 -0.437000006      -1.54792986E-12
 -0.425999999      -1.54562647E-12
 -0.414999992       3.51556241E-12
 -0.404000014       1.98985034E-12
 -0.393000007      -6.27030415E-12
 -0.381999999      -1.66450989E-12
 -0.370999992       8.76123132E-12
 -0.360000014       1.75708428E-12
 -0.349000007      -7.89073407E-12
 -0.338000000      -3.98454793E-12
 -0.326999992       2.73880744E-12
 -0.316000015       8.81881634E-12
 -0.305000007      -1.96995068E-12
 -0.294000000      -1.53291511E-11
 -0.282999992       2.53957359E-11
 -0.272000015       3.15124975E-11
 -0.261000007      -7.46007839E-11
 -0.250000000      -6.70396030E-11
 -0.238999993       1.02162064E-10
 -0.228000000       9.37831618E-11
 -0.216999993      -7.22204102E-11
 -0.206000000      -1.00810464E-10
 -0.194999993       1.23216921E-12
 -0.184000000       1.79056700E-10
 -0.172999993       1.56990643E-10
 -0.162000000      -3.64038216E-10
 -0.150999993      -4.49228127E-10
 -0.140000001       5.41213740E-10
 -0.128999993       8.85366724E-10
 -0.118000001      -3.49667739E-10
 -0.107000001      -1.05539733E-09
  -9.60000008E-02  -1.62526312E-10
  -8.50000009E-02   6.20373086E-10
  -7.40000010E-02   4.37902631E-10
  -6.30000010E-02   1.76055767E-10
  -5.20000011E-02   7.53988712E-12
  -4.10000011E-02  -1.62792904E-10
  -2.99999993E-02   3.80731086E-10
  -1.89999994E-02   9.79392900E-10
  -8.00000038E-03  -4.82767548E-10
   3.00000003E-03  -2.77346124E-09
   1.40000004E-02  -1.16942356E-09
   2.50000004E-02   2.49616239E-09
   3.59999985E-02   1.27999078E-09
   4.69999984E-02  -1.94247018E-09
   5.79999983E-02   4.58990373E-10
   6.89999983E-02   2.21342744E-09
   7.99999982E-02  -3.52398732E-09
   9.09999982E-02  -6.33387742E-09
  0.101999998       2.06605488E-09
  0.112999998       9.26378529E-09
  0.123999998       4.31671632E-09
  0.135000005      -2.43451792E-09
  0.145999998      -1.14460696E-09
  0.157000005       2.21711627E-09
  0.167999998       1.42583034E-09
  0.179000005       3.13063442E-09
  0.189999998       4.05850908E-09
  0.201000005      -5.93190386E-09
  0.211999997      -1.08621894E-08
  0.223000005       5.03129316E-09
  0.233999997       1.05350777E-08
  0.245000005      -1.47098191E-08
  0.256000012      -2.40600890E-08
  0.266999990       5.63320013E-09
  0.277999997       1.74896861E-08
  0.289000005      -7.17492377E-09
  0.300000012      -1.16031735E-08
  0.310999990       8.96837538E-09
  0.321999997       4.16855483E-09
  0.333000004      -8.35716740E-09
  0.344000012       1.48117225E-08
  0.354999989       2.67008442E-08
  0.365999997      -1.78889383E-08
  0.377000004      -4.33356462E-08
  0.388000011       6.68506051E-09
  0.398999989       4.35441372E-08
  0.409999996      -1.73618550E-10
  0.421000004      -4.20197210E-08
  0.432000011      -1.15976349E-08
  0.442999989       1.79083095E-08
  0.453999996      -9.38380396E-09
  0.465000004      -2.78138117E-08
  0.476000011       1.27580684E-08
  0.486999989       5.19682786E-08
  0.497999996       5.32704858E-09
  0.509000003      -6.59919976E-08
  0.519999981      -1.87156814E-08
  0.531000018       7.01990643E-08
  0.541999996       3.33923325E-08
  0.552999973      -6.97467897E-08
  0.564000010      -5.03839601E-08
  0.574999988       3.39497426E-08
  0.586000025       1.76932584E-08
  0.597000003      -1.06007710E-10
  0.607999980       7.08965260E-08
  0.619000018       8.49862616E-08
  0.629999995      -3.70854778E-08
  0.640999973      -9.60189226E-08
  0.652000010       1.18785932E-08
  0.662999988       8.32811793E-08
  0.674000025      -1.48740105E-08
  0.685000002      -1.10668715E-07
  0.695999980      -6.82013663E-08
  0.707000017       4.37669918E-08
  0.717999995       9.74150325E-08
  0.728999972       9.94708387E-08
  0.740000010       3.67555408E-08
  0.750999987      -1.11772302E-07
  0.762000024      -1.85113819E-07
  0.773000002      -4.37949943E-08
  0.783999979       1.56832769E-07
  0.795000017       1.31730616E-07
  0.805999994      -6.30228882E-08
  0.816999972      -1.25024826E-07
  0.828000009       7.25475546E-09
  0.838999987       7.81409781E-08
  0.850000024      -3.18171267E-08
  0.861000001      -8.47157295E-08
  0.871999979       4.10901961E-08
  0.883000016       9.37741405E-08
  0.893999994       1.07820419E-09
  0.904999971      -2.94366984E-08
  0.916000009      -6.41750075E-09
  0.926999986      -9.16507261E-08
  0.938000023      -1.52289587E-07
  0.949000001      -1.65681389E-08
  0.959999979       1.52653584E-07
  0.971000016       1.48303258E-07
  0.981999993      -8.44365466E-09
  0.992999971      -1.63196418E-07
   1.00399995      -1.46844783E-07
   1.01499999       7.56419993E-08
   1.02600002       2.69111382E-07
   1.03699994       2.13385249E-07
   1.04799998       1.64041503E-09
   1.05900002      -2.08343991E-07
   1.07000005      -2.51720024E-07
   1.08099997      -2.38437270E-08
   1.09200001       2.50203470E-07
   1.10300004       1.98963093E-07
   1.11399996      -7.76226443E-08
   1.12500000      -1.76663434E-07
   1.13600004      -5.52427082E-08
   1.14699996       5.66725653E-08
   1.15799999       6.43273310E-08
   1.16900003       3.95774746E-09
   1.17999995      -4.97487385E-08
   1.19099998      -4.09629806E-08
   1.20200002       7.90764876E-09
   1.21300006       3.87548802E-08
   1.22399998       4.77543018E-08
   1.23500001       3.17836388E-08
   1.24600005      -1.68108674E-08
   1.25699997      -3.82590244E-08
   1.26800001      -1.18627019E-08
   1.27900004      -2.34617903E-09
   1.28999996      -1.28889930E-08
   1.30100000      -4.66072825E-09
   1.31200004      -2.20245777E-08
   1.32299995      -5.06467757E-08
   1.33399999       2.19108554E-08
   1.34500003       1.18013197E-07
   1.35599995       3.61547343E-08
   1.36699998      -1.29923947E-07
   1.37800002      -1.33673026E-07
   1.38900006      -2.30502675E-08
