 -0.800000012       0.00000000
 -0.788999975       0.00000000
 -0.777999997       0.00000000
 -0.767000020       0.00000000
 -0.755999982      -4.97978076E-28
 -0.745000005      -2.13604724E-20
 -0.734000027       5.63610057E-19
 -0.722999990       2.46241556E-18
 -0.712000012       3.42180486E-18
 -0.700999975       5.32005512E-18
 -0.689999998      -7.32923514E-17
 -0.679000020       9.45927419E-17
 -0.667999983       4.20835508E-16
 -0.657000005      -1.30278813E-15
 -0.646000028       2.99318018E-16
 -0.634999990       4.92994944E-15
 -0.624000013      -7.23953724E-15
 -0.612999976      -8.13409297E-15
 -0.601999998       2.72184093E-14
 -0.591000021      -3.98826353E-15
 -0.579999983      -5.17495287E-14
 -0.569000006       4.98660426E-14
 -0.558000028       5.35019891E-14
 -0.546999991      -1.44501680E-13
 -0.536000013       1.06087048E-14
 -0.524999976       2.97132490E-13
 -0.513999999      -1.86805283E-13
 -0.503000021      -5.05283532E-13
 -0.492000014       3.78353490E-13
 -0.481000006       8.28885354E-13
 -0.469999999      -4.02987377E-13
 -0.458999991      -1.65550711E-12
 -0.448000014       1.54478278E-13
 -0.437000006       3.57222151E-12
 -0.425999999      -1.82429077E-14
 -0.414999992      -6.84288390E-12
 -0.404000014       1.09973532E-12
 -0.393000007       1.08939403E-11
 -0.381999999      -3.82375598E-12
 -0.370999992      -1.45878414E-11
 -0.360000014       6.23280550E-12
 -0.349000007       1.64724224E-11
 -0.338000000      -2.55212865E-12
 -0.326999992      -1.78879064E-11
 -0.316000015      -1.10896813E-11
 -0.305000007       2.94567218E-11
 -0.294000000       3.10199817E-11
 -0.282999992      -6.98293506E-11
 -0.272000015      -4.71796768E-11
 -0.261000007       1.43038595E-10
 -0.250000000       5.48406390E-11
 -0.238999993      -2.13272316E-10
 -0.228000000      -6.97306032E-11
 -0.216999993       1.97570765E-10
 -0.206000000       1.04641941E-10
 -0.194999993      -6.48716428E-11
 -0.184000000      -1.90828325E-10
 -0.172999993      -8.25083959E-11
 -0.162000000       4.85979423E-10
 -0.150999993       2.72823347E-10
 -0.140000001      -9.50514778E-10
 -0.128999993      -6.07433825E-10
 -0.118000001       1.19126364E-09
 -0.107000001       9.93086169E-10
  -9.60000008E-02  -9.21643817E-10
  -8.50000009E-02  -1.14047771E-09
  -7.40000010E-02   5.50795187E-10
  -6.30000010E-02   1.46906698E-09
  -5.20000011E-02  -1.94139677E-10
  -4.10000011E-02  -2.04891903E-09
  -2.99999993E-02  -3.43379006E-11
  -1.89999994E-02   2.77603496E-09
  -8.00000038E-03   8.77886652E-10
   3.00000003E-03  -1.67481873E-09
   1.40000004E-02  -1.11121579E-09
   2.50000004E-02  -2.29009278E-09
   3.59999985E-02  -2.89439028E-09
   4.69999984E-02   2.89062752E-09
   5.79999983E-02   6.46170539E-09
   6.89999983E-02  -1.50058699E-09
   7.99999982E-02  -7.74722864E-09
   9.09999982E-02  -1.42256218E-09
  0.101999998       7.59484298E-09
  0.112999998       3.76598575E-09
  0.123999998      -8.01637157E-09
  0.135000005      -6.30305985E-09
  0.145999998       7.87529686E-09
  0.157000005       9.78466463E-09
  0.167999998       9.37090960E-11
  0.179000005      -1.53799840E-09
  0.189999998      -2.62185940E-09
  0.201000005      -6.12847906E-09
  0.211999997      -3.01715408E-09
  0.223000005       2.24458430E-09
  0.233999997      -4.90879382E-09
  0.245000005      -5.63998981E-09
  0.256000012       1.30676314E-09
  0.266999990       2.16010418E-10
  0.277999997      -3.32866679E-10
  0.289000005       6.56817323E-10
  0.300000012      -8.91956997E-09
  0.310999990      -2.97226532E-09
  0.321999997       1.59723097E-08
  0.333000004       6.62519817E-09
  0.344000012      -3.64682662E-09
  0.354999989       8.25597812E-09
  0.365999997      -9.76620829E-09
  0.377000004      -2.69403255E-08
  0.388000011       6.43898534E-09
  0.398999989       2.43341098E-08
  0.409999996       9.40865164E-10
  0.421000004      -3.80884257E-09
  0.432000011       6.15680928E-09
  0.442999989      -1.41561820E-08
  0.453999996      -3.30706555E-08
  0.465000004      -4.10648404E-09
  0.476000011       4.33724807E-08
  0.486999989       2.94805602E-08
  0.497999996      -1.59078049E-08
  0.509000003      -4.73263846E-08
  0.519999981      -1.28372530E-08
  0.531000018       4.50022242E-08
  0.541999996       3.45673108E-08
  0.552999973      -6.50869403E-09
  0.564000010      -4.16819894E-08
  0.574999988      -3.74561928E-08
  0.586000025       1.06887219E-08
  0.597000003       3.63135548E-08
  0.607999980       4.78767319E-08
  0.619000018       7.00674008E-08
  0.629999995      -1.60701461E-08
  0.640999973      -9.34392901E-08
  0.652000010      -2.74489427E-08
  0.662999988       3.21316271E-08
  0.674000025      -1.70688708E-08
  0.685000002      -9.65494706E-09
  0.695999980       5.40981375E-08
  0.707000017      -1.28377327E-08
  0.717999995      -1.09934945E-07
  0.728999972      -7.22532931E-08
  0.740000010       4.87071610E-08
  0.750999987       1.01026899E-07
  0.762000024      -2.43713671E-08
  0.773000002      -6.86711132E-08
  0.783999979       5.63512224E-08
  0.795000017       1.56183777E-08
  0.805999994      -8.48314414E-08
  0.816999972       3.30364607E-08
  0.828000009       1.30231115E-07
  0.838999987      -5.83532689E-08
  0.850000024      -1.08266420E-07
  0.861000001       1.05098820E-07
  0.871999979       8.60223182E-08
  0.883000016      -6.11772677E-08
  0.893999994      -1.81400817E-09
  0.904999971      -1.06169207E-08
  0.916000009      -1.13598034E-07
  0.926999986       1.94253236E-08
  0.938000023       1.65373677E-07
  0.949000001       8.28498585E-08
  0.959999979      -2.26464802E-08
  0.971000016      -5.79181680E-08
  0.981999993      -9.22004659E-08
  0.992999971      -5.83582533E-08
   1.00399995      -4.55805989E-08
   1.01499999      -1.09706832E-07
   1.02600002      -4.07689278E-08
   1.03699994       8.16825647E-08
   1.04799998      -2.66166911E-08
   1.05900002      -8.65196270E-08
   1.07000005       9.45850758E-08
   1.08099997       7.89762069E-08
   1.09200001      -1.55740111E-07
   1.10300004      -4.45189094E-08
   1.11399996       2.22219654E-07
   1.12500000       3.23186953E-08
   1.13600004      -1.86974120E-07
   1.14699996       3.93191648E-08
   1.15799999       1.28128121E-07
   1.16900003      -1.34266315E-07
   1.17999995      -7.26955562E-08
   1.19099998       2.26944962E-07
   1.20200002       9.15234324E-08
   1.21300006      -1.50988001E-07
   1.22399998       5.47267076E-09
   1.23500001       1.03605323E-07
   1.24600005      -8.06606479E-08
   1.25699997      -7.88405998E-08
   1.26800001       1.05516619E-07
   1.27900004       9.98121692E-08
   1.28999996      -5.48341355E-08
   1.30100000      -1.06359963E-07
   1.31200004      -3.13259569E-08
   1.32299995       3.02738776E-08
   1.33399999       8.13419998E-09
   1.34500003      -9.64142544E-09
   1.35599995       3.84143490E-08
   1.36699998       2.40800553E-08
   1.37800002      -3.43746365E-08
   1.38900006       2.98070084E-08
