 -0.800000012       0.00000000
 -0.788999975       0.00000000
 -0.777999997       0.00000000
 -0.767000020       0.00000000
 -0.755999982      -3.76069961E-28
 -0.745000005      -8.99407213E-21
 -0.734000027       3.69318404E-20
 -0.722999990       3.25428611E-18
 -0.712000012       3.70324997E-18
 -0.700999975       1.17962283E-17
 -0.689999998       1.71060951E-17
 -0.679000020      -3.52016007E-17
 -0.667999983       2.77076944E-16
 -0.657000005      -5.56082212E-16
 -0.646000028      -3.98977400E-16
 -0.634999990       3.20640362E-15
 -0.624000013      -3.62345956E-15
 -0.612999976      -2.82647081E-15
 -0.601999998       1.69352701E-14
 -0.591000021      -2.13973008E-14
 -0.579999983      -2.98310333E-14
 -0.569000006       1.19206281E-13
 -0.558000028       6.75803501E-15
 -0.546999991      -3.19514760E-13
 -0.536000013       1.15591320E-13
 -0.524999976       6.13231362E-13
 -0.513999999      -3.68062487E-13
 -0.503000021      -9.04008910E-13
 -0.492000014       7.96411548E-13
 -0.481000006       1.24363605E-12
 -0.469999999      -1.31692877E-12
 -0.458999991      -2.13934122E-12
 -0.448000014       1.71361894E-12
 -0.437000006       4.57231085E-12
 -0.425999999      -2.38954950E-12
 -0.414999992      -8.97140435E-12
 -0.404000014       4.18982210E-12
 -0.393000007       1.39097458E-11
 -0.381999999      -7.01724789E-12
 -0.370999992      -1.53983128E-11
 -0.360000014       9.41843391E-12
 -0.349000007       1.07090673E-11
 -0.338000000      -5.90285416E-12
 -0.326999992      -9.43221087E-13
 -0.316000015      -7.75008963E-12
 -0.305000007      -2.82849894E-12
 -0.294000000       2.34212909E-11
 -0.282999992      -1.67635194E-11
 -0.272000015      -1.42226491E-11
 -0.261000007       7.03017991E-11
 -0.250000000      -3.60229242E-11
 -0.238999993      -1.22335947E-10
 -0.228000000       1.20630880E-10
 -0.216999993       1.13622133E-10
 -0.206000000      -1.88749155E-10
 -0.194999993      -1.05181107E-11
 -0.184000000       1.99557412E-10
 -0.172999993      -1.03490043E-10
 -0.162000000      -8.52625540E-11
 -0.150999993       1.70388051E-10
 -0.140000001      -5.50061489E-11
 -0.128999993      -1.88312185E-10
 -0.118000001       4.39982599E-11
 -0.107000001       2.62132649E-10
  -9.60000008E-02   3.41361522E-10
  -8.50000009E-02  -3.71107423E-10
  -7.40000010E-02  -8.06114564E-10
  -6.30000010E-02   9.31097366E-10
  -5.20000011E-02   1.40476986E-09
  -4.10000011E-02  -1.82473203E-09
  -2.99999993E-02  -2.23421281E-09
  -1.89999994E-02   2.34826025E-09
  -8.00000038E-03   3.13226045E-09
   3.00000003E-03  -1.34881228E-09
   1.40000004E-02  -2.78798495E-09
   2.50000004E-02  -2.44716858E-10
   3.59999985E-02   1.31904176E-09
   4.69999984E-02   1.89553884E-09
   5.79999983E-02   2.75475753E-09
   6.89999983E-02   2.41750286E-09
   7.99999982E-02  -2.10475570E-09
   9.09999982E-02  -7.88905385E-09
  0.101999998      -4.60800509E-09
  0.112999998       6.69049172E-09
  0.123999998       6.41099440E-09
  0.135000005      -6.19628082E-09
  0.145999998      -5.57623814E-09
  0.157000005       4.20694679E-09
  0.167999998       5.75817705E-09
  0.179000005       3.37233708E-09
  0.189999998       2.50849563E-09
  0.201000005      -3.42358986E-09
  0.211999997      -1.06732161E-08
  0.223000005      -8.13078227E-09
  0.233999997       6.29541919E-10
  0.245000005       8.15028756E-09
  0.256000012       5.29617417E-09
  0.266999990      -6.36833608E-09
  0.277999997      -7.10609216E-09
  0.289000005       1.05094982E-08
  0.300000012       4.99732833E-09
  0.310999990      -1.59535816E-08
  0.321999997      -2.59465183E-09
  0.333000004       1.26085897E-08
  0.344000012      -1.19390382E-08
  0.354999989      -1.47729118E-08
  0.365999997       2.49208849E-08
  0.377000004       2.08927489E-08
  0.388000011      -1.57920645E-08
  0.398999989       1.02661417E-08
  0.409999996       1.64432112E-08
  0.421000004      -4.30949392E-08
  0.432000011      -2.40390126E-08
  0.442999989       4.85920317E-08
  0.453999996      -5.84647830E-10
  0.465000004      -4.84538525E-08
  0.476000011       4.62616860E-08
  0.486999989       7.21541511E-08
  0.497999996      -1.57275508E-08
  0.509000003      -4.00196853E-08
  0.519999981      -7.93047672E-09
  0.531000018      -3.13311261E-08
  0.541999996       5.21921573E-09
  0.552999973       5.68381040E-08
  0.564000010      -1.00007291E-08
  0.574999988      -3.89649131E-08
  0.586000025       2.74094458E-09
  0.597000003      -2.53879606E-09
  0.607999980       9.37108524E-09
  0.619000018       5.67829019E-08
  0.629999995      -1.22630439E-09
  0.640999973      -5.80694710E-08
  0.652000010       2.20355396E-08
  0.662999988       3.47598252E-08
  0.674000025      -4.42039934E-08
  0.685000002      -7.50636087E-09
  0.695999980      -6.05941164E-09
  0.707000017      -1.15008710E-07
  0.717999995      -3.76000457E-08
  0.728999972       1.31353659E-07
  0.740000010       7.06523338E-08
  0.750999987      -7.35565564E-08
  0.762000024       1.07023466E-08
  0.773000002       8.92700101E-08
  0.783999979       1.38751943E-08
  0.795000017       1.46580206E-08
  0.805999994       7.63633352E-08
  0.816999972       1.72693877E-08
  0.828000009      -6.96519393E-08
  0.838999987      -3.99340188E-08
  0.850000024       3.70239839E-08
  0.861000001       2.06385042E-08
  0.871999979      -5.12917211E-08
  0.883000016      -4.62313068E-08
  0.893999994       3.92974755E-08
  0.904999971       5.15360838E-08
  0.916000009      -1.95279046E-08
  0.926999986      -5.89369087E-08
  0.938000023      -5.09563058E-08
  0.949000001      -4.16971346E-08
  0.959999979       9.09058873E-09
  0.971000016       5.08746929E-08
  0.981999993       4.01410958E-08
  0.992999971       6.09176354E-08
   1.00399995       2.40005971E-08
   1.01499999      -1.06330219E-07
   1.02600002      -4.93813062E-08
   1.03699994       1.45854145E-07
   1.04799998       7.58921530E-08
   1.05900002      -1.05840023E-07
   1.07000005      -4.46564492E-08
   1.08099997       2.98903196E-08
   1.09200001      -6.29396553E-08
   1.10300004       4.74510742E-09
   1.11399996       1.48175857E-07
   1.12500000       2.88926376E-08
   1.13600004      -1.10314225E-07
   1.14699996      -4.12271355E-08
   1.15799999      -3.85490395E-09
   1.16900003      -3.37771269E-08
   1.17999995       4.56158418E-08
   1.19099998       6.30303276E-08
   1.20200002      -1.63542158E-08
   1.21300006      -2.29452546E-08
   1.22399998      -4.13439878E-08
   1.23500001      -6.79452725E-08
   1.24600005       2.10428972E-08
   1.25699997       1.03747283E-07
   1.26800001       6.43561364E-08
   1.27900004       3.89651822E-09
   1.28999996      -3.56213761E-08
   1.30100000      -5.58289379E-08
   1.31200004      -1.79724591E-08
   1.32299995      -1.54734998E-08
   1.33399999      -5.37385674E-08
   1.34500003       3.32731389E-08
   1.35599995       9.94756704E-08
   1.36699998      -4.85674079E-08
   1.37800002      -1.36752632E-07
   1.38900006      -2.69689728E-08
