 -0.800000012       0.00000000
 -0.788999975       0.00000000
 -0.777999997       2.53316901E-09
 -0.767000020      -2.68293068E-08
 -0.755999982      -1.00033626E-08
 -0.745000005       3.37728437E-07
 -0.734000027       8.25955837E-08
 -0.722999990      -1.34978245E-06
 -0.712000012      -6.23404119E-08
 -0.700999975       3.30467378E-06
 -0.689999998      -6.06800882E-07
 -0.679000020      -5.72501267E-06
 -0.667999983       3.02650619E-06
 -0.657000005       8.71197244E-06
 -0.646000028      -5.50951381E-06
 -0.634999990      -1.13536835E-05
 -0.624000013       1.82921428E-06
 -0.612999976       7.39989218E-06
 -0.601999998       1.27846297E-05
 -0.591000021       1.59934134E-05
 -0.579999983      -2.41264734E-05
 -0.569000006      -5.24861753E-05
 -0.558000028       1.76269841E-05
 -0.546999991       7.83982687E-05
 -0.536000013       2.34731010E-06
 -0.524999976      -8.26582036E-05
 -0.513999999      -3.02649369E-05
 -0.503000021       7.31575565E-05
 -0.492000014       9.90091939E-05
 -0.481000006       1.88266149E-05
 -0.469999999      -1.23460690E-04
 -0.458999991      -1.69298000E-04
 -0.448000014      -1.56132137E-05
 -0.437000006       1.35229391E-04
 -0.425999999       4.26671722E-05
 -0.414999992      -2.00114067E-04
 -0.404000014      -3.56268545E-04
 -0.393000007      -3.54839081E-04
 -0.381999999      -2.89305492E-04
 -0.370999992      -3.44805449E-04
 -0.360000014      -6.45824301E-04
 -0.349000007      -1.05988607E-03
 -0.338000000      -1.37164269E-03
 -0.326999992      -1.61503989E-03
 -0.316000015      -2.01473362E-03
 -0.305000007      -2.76890257E-03
 -0.294000000      -3.97335319E-03
 -0.282999992      -5.50232362E-03
 -0.272000015      -7.08311331E-03
 -0.261000007      -8.78303032E-03
 -0.250000000      -1.11293243E-02
 -0.238999993      -1.44933825E-02
 -0.228000000      -1.87615566E-02
 -0.216999993      -2.37738136E-02
 -0.206000000      -2.96693835E-02
 -0.194999993      -3.67786735E-02
 -0.184000000      -4.55046818E-02
 -0.172999993      -5.61774485E-02
 -0.162000000      -6.88518062E-02
 -0.150999993      -8.34979340E-02
 -0.140000001     -0.100383908
 -0.128999993     -0.119972333
 -0.118000001     -0.142540246
 -0.107000001     -0.168099508
  -9.60000008E-02 -0.196558595
  -8.50000009E-02 -0.227873847
  -7.40000010E-02 -0.262042612
  -6.30000010E-02 -0.298901588
  -5.20000011E-02 -0.338037848
  -4.10000011E-02 -0.378881782
  -2.99999993E-02 -0.420659751
  -1.89999994E-02 -0.462381154
  -8.00000038E-03 -0.502987742
   3.00000003E-03 -0.541183293
   1.40000004E-02 -0.575238943
   2.50000004E-02 -0.603365004
   3.59999985E-02 -0.623855233
   4.69999984E-02 -0.634678304
   5.79999983E-02 -0.633600056
   6.89999983E-02 -0.618576705
   7.99999982E-02 -0.587519228
   9.09999982E-02 -0.538350523
  0.101999998     -0.469569176
  0.112999998     -0.380003333
  0.123999998     -0.268450975
  0.135000005     -0.134355858
  0.145999998       2.19171718E-02
  0.157000005      0.199644446
  0.167999998      0.397493511
  0.179000005      0.613013446
  0.189999998      0.843124270
  0.201000005       1.08429253
  0.211999997       1.33198345
  0.223000005       1.58090389
  0.233999997       1.82552469
  0.245000005       2.05976772
  0.256000012       2.27696490
  0.266999990       2.47048163
  0.277999997       2.63382101
  0.289000005       2.76051569
  0.300000012       2.84456706
  0.310999990       2.88073111
  0.321999997       2.86441231
  0.333000004       2.79186821
  0.344000012       2.66056371
  0.354999989       2.46928120
  0.365999997       2.21825600
  0.377000004       1.90933824
  0.388000011       1.54595053
  0.398999989       1.13299203
  0.409999996      0.676833212
  0.421000004      0.185336217
  0.432000011     -0.332185656
  0.442999989     -0.865182757
  0.453999996      -1.40217030
  0.465000004      -1.93095958
  0.476000011      -2.43901253
  0.486999989      -2.91391373
  0.497999996      -3.34362626
  0.509000003      -3.71669960
  0.519999981      -4.02279329
  0.531000018      -4.25319576
  0.541999996      -4.40100670
  0.552999973      -4.46134758
  0.564000010      -4.43176603
  0.574999988      -4.31240940
  0.586000025      -4.10589266
  0.597000003      -3.81725860
  0.607999980      -3.45401049
  0.619000018      -3.02585483
  0.629999995      -2.54424143
  0.640999973      -2.02206564
  0.652000010      -1.47335398
  0.662999988     -0.912665844
  0.674000025     -0.354498863
  0.685000002      0.187098235
  0.695999980      0.698999286
  0.707000017       1.16951430
  0.717999995       1.58865654
  0.728999972       1.94838285
  0.740000010       2.24290800
  0.750999987       2.46877742
  0.762000024       2.62476134
  0.773000002       2.71182704
  0.783999979       2.73301578
  0.795000017       2.69312882
  0.805999994       2.59846568
  0.816999972       2.45652914
  0.828000009       2.27553916
  0.838999987       2.06403780
  0.850000024       1.83069789
  0.861000001       1.58404529
  0.871999979       1.33208072
  0.883000016       1.08205080
  0.893999994      0.840325832
  0.904999971      0.612232566
  0.916000009      0.401938051
  0.926999986      0.212506831
  0.938000023       4.60174792E-02
  0.949000001      -9.64303538E-02
  0.959999979     -0.214701951
  0.971000016     -0.309430093
  0.981999993     -0.381815046
  0.992999971     -0.433581054
   1.00399995     -0.466841549
   1.01499999     -0.483852476
   1.02600002     -0.486993939
   1.03699994     -0.478807986
   1.04799998     -0.461710364
   1.05900002     -0.437755823
   1.07000005     -0.408812702
   1.08099997     -0.376660615
   1.09200001     -0.342818588
   1.10300004     -0.308538616
   1.11399996     -0.274884224
   1.12500000     -0.242603287
   1.13600004     -0.212129757
   1.14699996     -0.183812857
   1.15799999     -0.157945126
   1.16900003     -0.134652957
   1.17999995     -0.113932997
   1.19099998      -9.56660435E-02
   1.20200002      -7.96256289E-02
   1.21300006      -6.56490996E-02
   1.22399998      -5.36652841E-02
   1.23500001      -4.35171463E-02
   1.24600005      -3.49754095E-02
   1.25699997      -2.78266966E-02
   1.26800001      -2.18219720E-02
   1.27900004      -1.67747084E-02
   1.28999996      -1.26723247E-02
   1.30100000      -9.45379212E-03
   1.31200004      -6.90145371E-03
   1.32299995      -4.86096507E-03
   1.33399999      -3.26071540E-03
   1.34500003      -2.01290636E-03
   1.35599995      -1.12048176E-03
   1.36699998      -6.01659005E-04
   1.37800002      -2.98218569E-04
   1.38900006      -8.08848854E-05
