 -0.800000012       0.00000000
 -0.788999975       0.00000000
 -0.777999997       0.00000000
 -0.767000020      -5.57297333E-11
 -0.755999982       5.90244853E-10
 -0.745000005       1.64344080E-10
 -0.734000027      -6.83978385E-09
 -0.722999990      -1.65275604E-09
 -0.712000012       2.28554331E-08
 -0.700999975      -2.81285578E-10
 -0.689999998      -4.98474009E-08
 -0.679000020       1.30683535E-08
 -0.667999983       7.61028716E-08
 -0.657000005      -5.35147748E-08
 -0.646000028      -1.15560461E-07
 -0.634999990       6.76945433E-08
 -0.624000013       1.34220585E-07
 -0.612999976       2.74517529E-08
 -0.601999998      -2.85771424E-08
 -0.591000021      -2.53810072E-07
 -0.579999983      -3.80431942E-07
 -0.569000006       2.76972912E-07
 -0.558000028       7.74263640E-07
 -0.546999991      -1.10822135E-07
 -0.536000013      -9.50497963E-07
 -0.524999976      -1.62460836E-07
 -0.513999999       8.67981612E-07
 -0.503000021       5.03364561E-07
 -0.492000014      -7.41484484E-07
 -0.481000006      -1.67483483E-06
 -0.469999999      -1.15566854E-06
 -0.458999991       1.04130061E-06
 -0.448000014       2.56888529E-06
 -0.437000006       1.38478561E-06
 -0.425999999      -4.06163281E-07
 -0.414999992       4.46119515E-07
 -0.404000014       3.99635655E-06
 -0.393000007       8.28401699E-06
 -0.381999999       1.18027983E-05
 -0.370999992       1.46487237E-05
 -0.360000014       1.93885317E-05
 -0.349000007       2.88569281E-05
 -0.338000000       4.27060295E-05
 -0.326999992       5.90329000E-05
 -0.316000015       7.82368952E-05
 -0.305000007       1.03357364E-04
 -0.294000000       1.39152835E-04
 -0.282999992       1.90770676E-04
 -0.272000015       2.60203611E-04
 -0.261000007       3.46599525E-04
 -0.250000000       4.53431043E-04
 -0.238999993       5.91444841E-04
 -0.228000000       7.72284169E-04
 -0.216999993       1.00419763E-03
 -0.206000000       1.29530905E-03
 -0.194999993       1.65692659E-03
 -0.184000000       2.10443931E-03
 -0.172999993       2.65802583E-03
 -0.162000000       3.34034278E-03
 -0.150999993       4.17277124E-03
 -0.140000001       5.17730042E-03
 -0.128999993       6.38121041E-03
 -0.118000001       7.81668164E-03
 -0.107000001       9.51709785E-03
  -9.60000008E-02   1.15148863E-02
  -8.50000009E-02   1.38413943E-02
  -7.40000010E-02   1.65280979E-02
  -6.30000010E-02   1.96063183E-02
  -5.20000011E-02   2.31039375E-02
  -4.10000011E-02   2.70431601E-02
  -2.99999993E-02   3.14393379E-02
  -1.89999994E-02   3.62976678E-02
  -8.00000038E-03   4.16117199E-02
   3.00000003E-03   4.73634116E-02
   1.40000004E-02   5.35177700E-02
   2.50000004E-02   6.00186661E-02
   3.59999985E-02   6.67917803E-02
   4.69999984E-02   7.37434700E-02
   5.79999983E-02   8.07547122E-02
   6.89999983E-02   8.76826867E-02
   7.99999982E-02   9.43633988E-02
   9.09999982E-02  0.100608088
  0.101999998      0.106207095
  0.112999998      0.110938609
  0.123999998      0.114567168
  0.135000005      0.116844513
  0.145999998      0.117522985
  0.157000005      0.116362363
  0.167999998      0.113130860
  0.179000005      0.107617535
  0.189999998       9.96445417E-02
  0.201000005       8.90687630E-02
  0.211999997       7.57900998E-02
  0.223000005       5.97651638E-02
  0.233999997       4.10102494E-02
  0.245000005       1.96036026E-02
  0.256000012      -4.30468796E-03
  0.266999990      -3.04896608E-02
  0.277999997      -5.86552955E-02
  0.289000005      -8.84337127E-02
  0.300000012     -0.119386569
  0.310999990     -0.151014090
  0.321999997     -0.182762668
  0.333000004     -0.214031309
  0.344000012     -0.244183853
  0.354999989     -0.272563666
  0.365999997     -0.298507959
  0.377000004     -0.321365267
  0.388000011     -0.340513438
  0.398999989     -0.355376184
  0.409999996     -0.365439206
  0.421000004     -0.370266438
  0.432000011     -0.369516641
  0.442999989     -0.362958491
  0.453999996     -0.350482643
  0.465000004     -0.332110703
  0.476000011     -0.308001518
  0.486999989     -0.278452426
  0.497999996     -0.243895411
  0.509000003     -0.204892680
  0.519999981     -0.162128180
  0.531000018     -0.116391338
  0.541999996      -6.85577020E-02
  0.552999973      -1.95688717E-02
  0.564000010       2.95920875E-02
  0.574999988       7.79298320E-02
  0.586000025      0.124464825
  0.597000003      0.168259293
  0.607999980      0.208444506
  0.619000018      0.244247720
  0.629999995      0.275013506
  0.640999973      0.300220996
  0.652000010      0.319498748
  0.662999988      0.332634658
  0.674000025      0.339577407
  0.685000002      0.340433657
  0.695999980      0.335461259
  0.707000017      0.325055718
  0.717999995      0.309731960
  0.728999972      0.290105164
  0.740000010      0.266867489
  0.750999987      0.240761355
  0.762000024      0.212554514
  0.773000002      0.183016449
  0.783999979      0.152894080
  0.795000017      0.122890025
  0.805999994       9.36453640E-02
  0.816999972       6.57240301E-02
  0.828000009       3.96018997E-02
  0.838999987       1.56621020E-02
  0.850000024      -5.80719439E-03
  0.861000001      -2.46134400E-02
  0.871999979      -4.06560451E-02
  0.883000016      -5.39188683E-02
  0.893999994      -6.44610226E-02
  0.904999971      -7.24062100E-02
  0.916000009      -7.79303983E-02
  0.926999986      -8.12490210E-02
  0.938000023      -8.26055333E-02
  0.949000001      -8.22611675E-02
  0.959999979      -8.04838911E-02
  0.971000016      -7.75378570E-02
  0.981999993      -7.36765862E-02
  0.992999971      -6.91378489E-02
   1.00399995      -6.41376749E-02
   1.01499999      -5.88673167E-02
   1.02600002      -5.34929372E-02
   1.03699994      -4.81534488E-02
   1.04799998      -4.29591872E-02
   1.05900002      -3.79958525E-02
   1.07000005      -3.33285369E-02
   1.08099997      -2.90019717E-02
   1.09200001      -2.50421129E-02
   1.10300004      -2.14600731E-02
   1.11399996      -1.82541795E-02
   1.12500000      -1.54124070E-02
   1.13600004      -1.29168760E-02
   1.14699996      -1.07457824E-02
   1.15799999      -8.87322892E-03
   1.16900003      -7.27105560E-03
   1.17999995      -5.91074908E-03
   1.19099998      -4.76425979E-03
   1.20200002      -3.80586553E-03
   1.21300006      -3.01253959E-03
   1.22399998      -2.36180890E-03
   1.23500001      -1.83206587E-03
   1.24600005      -1.40449230E-03
   1.25699997      -1.06255617E-03
   1.26800001      -7.92092818E-04
   1.27900004      -5.82276203E-04
   1.28999996      -4.23113292E-04
   1.30100000      -3.03706387E-04
   1.31200004      -2.15221429E-04
   1.32299995      -1.51806234E-04
   1.33399999      -1.08211047E-04
   1.34500003      -8.00099879E-05
   1.35599995      -6.38063357E-05
   1.36699998      -5.53074970E-05
   1.37800002      -5.07458499E-05
   1.38900006      -4.89952181E-05
