 -0.800000012       0.00000000
 -0.788999975       0.00000000
 -0.777999997       0.00000000
 -0.767000020       5.57297160E-11
 -0.755999982      -5.90244742E-10
 -0.745000005      -1.64344260E-10
 -0.734000027       6.83978074E-09
 -0.722999990       1.65275815E-09
 -0.712000012      -2.28554331E-08
 -0.700999975       2.81270091E-10
 -0.689999998       4.98473902E-08
 -0.679000020      -1.30683508E-08
 -0.667999983      -7.61029000E-08
 -0.657000005       5.35147784E-08
 -0.646000028       1.15560489E-07
 -0.634999990      -6.76945291E-08
 -0.624000013      -1.34220542E-07
 -0.612999976      -2.74518115E-08
 -0.601999998       2.85770749E-08
 -0.591000021       2.53809986E-07
 -0.579999983       3.80432112E-07
 -0.569000006      -2.76972429E-07
 -0.558000028      -7.74263754E-07
 -0.546999991       1.10821205E-07
 -0.536000013       9.50498190E-07
 -0.524999976       1.62462001E-07
 -0.513999999      -8.67982180E-07
 -0.503000021      -5.03366550E-07
 -0.492000014       7.41484030E-07
 -0.481000006       1.67483574E-06
 -0.469999999       1.15566968E-06
 -0.458999991      -1.04129947E-06
 -0.448000014      -2.56888643E-06
 -0.437000006      -1.38479038E-06
 -0.425999999       4.06159984E-07
 -0.414999992      -4.46112665E-07
 -0.404000014      -3.99634973E-06
 -0.393000007      -8.28402153E-06
 -0.381999999      -1.18028092E-05
 -0.370999992      -1.46487419E-05
 -0.360000014      -1.93885298E-05
 -0.349000007      -2.88568772E-05
 -0.338000000      -4.27060186E-05
 -0.326999992      -5.90330128E-05
 -0.316000015      -7.82369025E-05
 -0.305000007      -1.03357153E-04
 -0.294000000      -1.39152748E-04
 -0.282999992      -1.90770894E-04
 -0.272000015      -2.60203873E-04
 -0.261000007      -3.46599409E-04
 -0.250000000      -4.53430519E-04
 -0.238999993      -5.91444492E-04
 -0.228000000      -7.72284868E-04
 -0.216999993      -1.00419868E-03
 -0.206000000      -1.29530870E-03
 -0.194999993      -1.65692496E-03
 -0.184000000      -2.10443931E-03
 -0.172999993      -2.65802792E-03
 -0.162000000      -3.34034325E-03
 -0.150999993      -4.17276751E-03
 -0.140000001      -5.17729763E-03
 -0.128999993      -6.38121320E-03
 -0.118000001      -7.81668909E-03
 -0.107000001      -9.51709878E-03
  -9.60000008E-02  -1.15148788E-02
  -8.50000009E-02  -1.38413887E-02
  -7.40000010E-02  -1.65281035E-02
  -6.30000010E-02  -1.96063258E-02
  -5.20000011E-02  -2.31039375E-02
  -4.10000011E-02  -2.70431601E-02
  -2.99999993E-02  -3.14393379E-02
  -1.89999994E-02  -3.62976715E-02
  -8.00000038E-03  -4.16117199E-02
   3.00000003E-03  -4.73634042E-02
   1.40000004E-02  -5.35177551E-02
   2.50000004E-02  -6.00186624E-02
   3.59999985E-02  -6.67917877E-02
   4.69999984E-02  -7.37434775E-02
   5.79999983E-02  -8.07547122E-02
   6.89999983E-02  -8.76826793E-02
   7.99999982E-02  -9.43633988E-02
   9.09999982E-02 -0.100608096
  0.101999998     -0.106207110
  0.112999998     -0.110938616
  0.123999998     -0.114567176
  0.135000005     -0.116844535
  0.145999998     -0.117523000
  0.157000005     -0.116362356
  0.167999998     -0.113130823
  0.179000005     -0.107617505
  0.189999998      -9.96445343E-02
  0.201000005      -8.90687704E-02
  0.211999997      -7.57900998E-02
  0.223000005      -5.97651415E-02
  0.233999997      -4.10102196E-02
  0.245000005      -1.96035989E-02
  0.256000012       4.30466980E-03
  0.266999990       3.04896329E-02
  0.277999997       5.86552657E-02
  0.289000005       8.84336978E-02
  0.300000012      0.119386606
  0.310999990      0.151014164
  0.321999997      0.182762682
  0.333000004      0.214031234
  0.344000012      0.244183779
  0.354999989      0.272563636
  0.365999997      0.298507959
  0.377000004      0.321365267
  0.388000011      0.340513408
  0.398999989      0.355376184
  0.409999996      0.365439236
  0.421000004      0.370266527
  0.432000011      0.369516641
  0.442999989      0.362958431
  0.453999996      0.350482643
  0.465000004      0.332110703
  0.476000011      0.308001518
  0.486999989      0.278452456
  0.497999996      0.243895426
  0.509000003      0.204892650
  0.519999981      0.162128046
  0.531000018      0.116391197
  0.541999996       6.85577244E-02
  0.552999973       1.95690468E-02
  0.564000010      -2.95919217E-02
  0.574999988      -7.79298022E-02
  0.586000025     -0.124464929
  0.597000003     -0.168259442
  0.607999980     -0.208444595
  0.619000018     -0.244247660
  0.629999995     -0.275013387
  0.640999973     -0.300220937
  0.652000010     -0.319498837
  0.662999988     -0.332634717
  0.674000025     -0.339577466
  0.685000002     -0.340433717
  0.695999980     -0.335461289
  0.707000017     -0.325055718
  0.717999995     -0.309731960
  0.728999972     -0.290105253
  0.740000010     -0.266867548
  0.750999987     -0.240761280
  0.762000024     -0.212554440
  0.773000002     -0.183016524
  0.783999979     -0.152894244
  0.795000017     -0.122890174
  0.805999994      -9.36454013E-02
  0.816999972      -6.57239333E-02
  0.828000009      -3.96017656E-02
  0.838999987      -1.56620704E-02
  0.850000024       5.80706634E-03
  0.861000001       2.46132817E-02
  0.871999979       4.06560600E-02
  0.883000016       5.39190546E-02
  0.893999994       6.44611791E-02
  0.904999971       7.24062324E-02
  0.916000009       7.79303014E-02
  0.926999986       8.12488720E-02
  0.938000023       8.26054588E-02
  0.949000001       8.22612569E-02
  0.959999979       8.04839879E-02
  0.971000016       7.75378123E-02
  0.981999993       7.36765265E-02
  0.992999971       6.91378787E-02
   1.00399995       6.41377419E-02
   1.01499999       5.88673688E-02
   1.02600002       5.34929931E-02
   1.03699994       4.81535047E-02
   1.04799998       4.29592170E-02
   1.05900002       3.79958786E-02
   1.07000005       3.33285891E-02
   1.08099997       2.90019978E-02
   1.09200001       2.50420552E-02
   1.10300004       2.14599892E-02
   1.11399996       1.82542056E-02
   1.12500000       1.54125374E-02
   1.13600004       1.29169328E-02
   1.14699996       1.07456828E-02
   1.15799999       8.87305010E-03
   1.16900003       7.27088843E-03
   1.17999995       5.91068435E-03
   1.19099998       4.76436224E-03
   1.20200002       3.80603108E-03
   1.21300006       3.01259826E-03
   1.22399998       2.36175093E-03
   1.23500001       1.83196203E-03
   1.24600005       1.40437356E-03
   1.25699997       1.06250297E-03
   1.26800001       7.92186300E-04
   1.27900004       5.82419685E-04
   1.28999996       4.23142716E-04
   1.30100000       3.03628534E-04
   1.31200004       2.15159263E-04
   1.32299995       1.51796514E-04
   1.33399999       1.08218017E-04
   1.34500003       8.00607741E-05
   1.35599995       6.39340797E-05
   1.36699998       5.54101716E-05
   1.37800002       5.06975775E-05
   1.38900006       4.88493606E-05
