 -0.959999979       0.00000000
 -0.925000012       0.00000000
 -0.889999986      -1.75033078E-11
 -0.855000019      -7.00132313E-11
 -0.819999993       3.52710187E-11
 -0.785000026       2.83781193E-10
 -0.750000000       1.31050004E-09
 -0.714999974      -1.21642163E-09
 -0.680000007      -6.90016655E-11
 -0.644999981      -2.79007151E-09
 -0.610000014       5.87054538E-09
 -0.574999988       3.43327784E-08
 -0.540000021       3.09996118E-08
 -0.504999995      -1.02507357E-07
 -0.469999999      -5.98857071E-08
 -0.435000002       1.36255281E-07
 -0.400000006       1.46961298E-07
 -0.365000010      -8.22648119E-08
 -0.330000013      -1.21142483E-08
 -0.294999987      -1.37475709E-07
 -0.259999990       2.62773142E-07
 -0.224999994       2.16522594E-07
 -0.189999998      -1.67689933E-07
 -0.155000001       1.01799024E-07
 -0.119999997      -1.24596932E-06
  -8.50000009E-02  -5.74266721E-07
  -5.00000007E-02   1.23840550E-06
  -1.49999997E-02   1.93944359E-07
   1.99999996E-02   4.51326599E-07
   5.49999997E-02   2.26413317E-06
   9.00000036E-02  -1.79343033E-06
  0.125000000      -3.77397714E-06
  0.159999996       1.62499134E-06
  0.194999993       6.94312632E-07
  0.230000004      -9.54975803E-07
  0.264999986       3.00489887E-06
  0.300000012       6.37322387E-07
  0.335000008      -2.79314645E-06
  0.370000005       6.54865687E-07
  0.405000001       1.00444458E-06
  0.439999998      -1.22747713E-06
  0.474999994       9.78614139E-07
  0.509999990       6.69763494E-07
  0.545000017      -2.52370387E-06
  0.579999983      -4.01778351E-07
  0.615000010       4.96193934E-07
  0.649999976      -1.98683620E-06
  0.685000002       8.71994303E-07
  0.720000029       2.65152767E-06
  0.754999995      -7.73660304E-07
  0.790000021       1.61183593E-07
  0.824999988       2.95087261E-06
  0.860000014      -1.09032715E-06
  0.894999981      -4.11901829E-06
  0.930000007       8.24893107E-07
  0.964999974       2.85804595E-06
   1.00000000      -2.29425427E-06
   1.03499997      -2.44656735E-06
   1.07000005       3.73229636E-06
   1.10500002       2.57263264E-06
   1.13999999      -3.82950202E-06
   1.17499995      -7.49261460E-07
   1.21000004       4.37146082E-06
   1.24500000      -1.43179136E-06
   1.27999997      -4.16259536E-06
   1.31500006       2.90703633E-06
   1.35000002       2.39545466E-06
   1.38499999      -3.21299808E-06
   1.41999996       2.14218403E-07
   1.45500004       2.22341532E-06
   1.49000001      -2.19441586E-06
   1.52499998      -8.15741203E-07
   1.55999994       1.70248234E-06
   1.59500003      -1.26448901E-06
   1.63000000      -3.72581553E-07
