 -0.800000012       0.00000000
 -0.788999975       0.00000000
 -0.777999997       0.00000000
 -0.767000020       0.00000000
 -0.755999982       1.88665833E-10
 -0.745000005      -3.44108020E-10
 -0.734000027      -5.41373479E-09
 -0.722999990       8.34840996E-09
 -0.712000012       2.29987460E-08
 -0.700999975      -4.07857996E-08
 -0.689999998      -4.83128417E-08
 -0.679000020       1.11088660E-07
 -0.667999983       5.15449798E-08
 -0.657000005      -2.08334285E-07
 -0.646000028       4.75761319E-10
 -0.634999990       2.79692642E-07
 -0.624000013      -6.93886335E-08
 -0.612999976      -1.85900902E-07
 -0.601999998       3.84993299E-08
 -0.591000021      -3.07817970E-07
 -0.579999983       8.72900614E-08
 -0.569000006       1.26051270E-06
 -0.558000028      -6.22701322E-08
 -0.546999991      -2.09787299E-06
 -0.536000013      -7.94680588E-08
 -0.524999976       2.07900734E-06
 -0.513999999      -1.20527872E-07
 -0.503000021      -1.32923049E-06
 -0.492000014       4.40430597E-07
 -0.481000006       2.49901007E-07
 -0.469999999       1.08915941E-07
 -0.458999991       2.07270205E-06
 -0.448000014       2.47933780E-08
 -0.437000006      -4.21552932E-06
 -0.425999999      -2.96820872E-06
 -0.414999992      -1.09221673E-06
 -0.404000014      -3.78639538E-06
 -0.393000007      -5.94417770E-06
 -0.381999999      -9.29350244E-06
 -0.370999992      -1.78734899E-05
 -0.360000014      -2.39868223E-05
 -0.349000007      -2.76083138E-05
 -0.338000000      -4.01511716E-05
 -0.326999992      -5.91151547E-05
 -0.316000015      -7.81113122E-05
 -0.305000007      -1.06047766E-04
 -0.294000000      -1.46182501E-04
 -0.282999992      -1.92422362E-04
 -0.272000015      -2.54075858E-04
 -0.261000007      -3.43501422E-04
 -0.250000000      -4.56658978E-04
 -0.238999993      -5.95087826E-04
 -0.228000000      -7.74811080E-04
 -0.216999993      -1.00534491E-03
 -0.206000000      -1.29274488E-03
 -0.194999993      -1.65363506E-03
 -0.184000000      -2.10539694E-03
 -0.172999993      -2.66104890E-03
 -0.162000000      -3.34043545E-03
 -0.150999993      -4.16972023E-03
 -0.140000001      -5.17311599E-03
 -0.128999993      -6.37641270E-03
 -0.118000001      -7.81221641E-03
 -0.107000001      -9.51368921E-03
  -9.60000008E-02  -1.15095992E-02
  -8.50000009E-02  -1.38320178E-02
  -7.40000010E-02  -1.65178031E-02
  -6.30000010E-02  -1.95961669E-02
  -5.20000011E-02  -2.30906475E-02
  -4.10000011E-02  -2.70290729E-02
  -2.99999993E-02  -3.14284675E-02
  -1.89999994E-02  -3.62854972E-02
  -8.00000038E-03  -4.15955745E-02
   3.00000003E-03  -4.73483019E-02
   1.40000004E-02  -5.35037182E-02
   2.50000004E-02  -6.00039065E-02
   3.59999985E-02  -6.67819306E-02
   4.69999984E-02  -7.37394392E-02
   5.79999983E-02  -8.07517916E-02
   6.89999983E-02  -8.76846388E-02
   7.99999982E-02  -9.43736061E-02
   9.09999982E-02 -0.100622930
  0.101999998     -0.106230430
  0.112999998     -0.110974655
  0.123999998     -0.114608608
  0.135000005     -0.116891578
  0.145999998     -0.117583402
  0.157000005     -0.116428837
  0.167999998     -0.113195866
  0.179000005     -0.107688613
  0.189999998      -9.97203439E-02
  0.201000005      -8.91386196E-02
  0.211999997      -7.58554637E-02
  0.223000005      -5.98249584E-02
  0.233999997      -4.10518907E-02
  0.245000005      -1.96254477E-02
  0.256000012       4.29872936E-03
  0.266999990       3.05061098E-02
  0.277999997       5.86952381E-02
  0.289000005       8.84927511E-02
  0.300000012      0.119472705
  0.310999990      0.151131496
  0.321999997      0.182899669
  0.333000004      0.214182451
  0.344000012      0.244348571
  0.354999989      0.272729069
  0.365999997      0.298664689
  0.377000004      0.321516842
  0.388000011      0.340654522
  0.398999989      0.355491340
  0.409999996      0.365522414
  0.421000004      0.370315999
  0.432000011      0.369524062
  0.442999989      0.362919867
  0.453999996      0.350404829
  0.465000004      0.331998318
  0.476000011      0.307854652
  0.486999989      0.278277844
  0.497999996      0.243703842
  0.509000003      0.204688892
  0.519999981      0.161919430
  0.531000018      0.116193473
  0.541999996       6.83801845E-02
  0.552999973       1.94152556E-02
  0.564000010      -2.97095589E-02
  0.574999988      -7.80037493E-02
  0.586000025     -0.124502577
  0.597000003     -0.168259546
  0.607999980     -0.208399475
  0.619000018     -0.244168356
  0.629999995     -0.274911553
  0.640999973     -0.300092459
  0.652000010     -0.319353044
  0.662999988     -0.332492590
  0.674000025     -0.339440256
  0.685000002     -0.340301812
  0.695999980     -0.335352570
  0.707000017     -0.324975252
  0.717999995     -0.309672058
  0.728999972     -0.290073097
  0.740000010     -0.266867340
  0.750999987     -0.240779862
  0.762000024     -0.212589011
  0.773000002     -0.183071896
  0.783999979     -0.152958378
  0.795000017     -0.122951336
  0.805999994      -9.37056541E-02
  0.816999972      -6.57776743E-02
  0.828000009      -3.96376997E-02
  0.838999987      -1.56826582E-02
  0.850000024       5.79819037E-03
  0.861000001       2.46228240E-02
  0.871999979       4.06844467E-02
  0.883000016       5.39577976E-02
  0.893999994       6.45083562E-02
  0.904999971       7.24628493E-02
  0.916000009       7.79892728E-02
  0.926999986       8.13031048E-02
  0.938000023       8.26550573E-02
  0.949000001       8.23035240E-02
  0.959999979       8.05110037E-02
  0.971000016       7.75486231E-02
  0.981999993       7.36750141E-02
  0.992999971       6.91209510E-02
   1.00399995       6.41028360E-02
   1.01499999       5.88205419E-02
   1.02600002       5.34359775E-02
   1.03699994       4.80822287E-02
   1.04799998       4.28794362E-02
   1.05900002       3.79167758E-02
   1.07000005       3.32495868E-02
   1.08099997       2.89249234E-02
   1.09200001       2.49756314E-02
   1.10300004       2.14046352E-02
   1.11399996       1.82076991E-02
   1.12500000       1.53826056E-02
   1.13600004       1.29075320E-02
   1.14699996       1.07514551E-02
   1.15799999       8.89528915E-03
   1.16900003       7.31335348E-03
   1.17999995       5.96681191E-03
   1.19099998       4.82965261E-03
   1.20200002       3.88385751E-03
   1.21300006       3.09844106E-03
   1.22399998       2.44612992E-03
   1.23500001       1.91485323E-03
   1.24600005       1.48602435E-03
   1.25699997       1.13548629E-03
   1.26800001       8.53729143E-04
   1.27900004       6.34100288E-04
   1.28999996       4.59934090E-04
   1.30100000       3.22129315E-04
   1.31200004       2.20211950E-04
   1.32299995       1.44141915E-04
   1.33399999       8.42583249E-05
   1.34500003       4.30773980E-05
   1.35599995       1.74969391E-05
   1.36699998      -2.31043782E-06
   1.37800002      -1.40582852E-05
   1.38900006      -1.44117421E-05
