 -0.800000012       0.00000000
 -0.788999975       0.00000000
 -0.777999997       0.00000000
 -0.767000020       0.00000000
 -0.755999982       0.00000000
 -0.745000005      -7.27196555E-14
 -0.734000027      -1.59100977E-12
 -0.722999990       1.20139862E-11
 -0.712000012      -3.03572584E-11
 -0.700999975      -4.43462888E-12
 -0.689999998       1.71164916E-10
 -0.679000020      -2.42435516E-10
 -0.667999983      -3.38807815E-10
 -0.657000005       1.16123333E-09
 -0.646000028      -8.38450004E-11
 -0.634999990      -2.98083558E-09
 -0.624000013       2.29965402E-09
 -0.612999976       4.84670837E-09
 -0.601999998      -7.01557523E-09
 -0.591000021      -4.04980938E-09
 -0.579999983       1.19581447E-08
 -0.569000006      -3.95869870E-09
 -0.558000028      -9.75221415E-09
 -0.546999991       2.43877558E-08
 -0.536000013      -9.52032231E-09
 -0.524999976      -5.96991114E-08
 -0.513999999       4.74521045E-08
 -0.503000021       1.00073123E-07
 -0.492000014      -8.56605240E-08
 -0.481000006      -1.08214714E-07
 -0.469999999       9.61603419E-08
 -0.458999991       2.18259206E-08
 -0.448000014      -8.34217317E-08
 -0.437000006       1.83430103E-07
 -0.425999999       9.89260442E-08
 -0.414999992      -3.95121077E-07
 -0.404000014      -1.41935047E-07
 -0.393000007       3.99927046E-07
 -0.381999999       4.62802632E-08
 -0.370999992      -1.58002280E-07
 -0.360000014       3.18180668E-07
 -0.349000007      -9.66207452E-08
 -0.338000000      -6.86191640E-07
 -0.326999992       3.38986410E-07
 -0.316000015       8.33656657E-07
 -0.305000007      -6.70943507E-07
 -0.294000000      -1.09397843E-06
 -0.282999992      -6.30352091E-08
 -0.272000015      -7.01577960E-07
 -0.261000007      -1.67864494E-06
 -0.250000000      -7.67518031E-07
 -0.238999993      -1.08773895E-06
 -0.228000000      -3.54283520E-06
 -0.216999993      -4.22417725E-06
 -0.206000000      -3.80075267E-06
 -0.194999993      -5.75115428E-06
 -0.184000000      -8.43892121E-06
 -0.172999993      -1.04618875E-05
 -0.162000000      -1.42166700E-05
 -0.150999993      -1.91339477E-05
 -0.140000001      -2.36424239E-05
 -0.128999993      -3.05179783E-05
 -0.118000001      -4.04834245E-05
 -0.107000001      -5.07284203E-05
  -9.60000008E-02  -6.30488212E-05
  -8.50000009E-02  -8.05455202E-05
  -7.40000010E-02  -1.00803336E-04
  -6.30000010E-02  -1.22748286E-04
  -5.20000011E-02  -1.49771629E-04
  -4.10000011E-02  -1.81902782E-04
  -2.99999993E-02  -2.17111563E-04
  -1.89999994E-02  -2.57316307E-04
  -8.00000038E-03  -3.03397916E-04
   3.00000003E-03  -3.52141768E-04
   1.40000004E-02  -4.02409612E-04
   2.50000004E-02  -4.55164496E-04
   3.59999985E-02  -5.08041121E-04
   4.69999984E-02  -5.56602958E-04
   5.79999983E-02  -5.97453909E-04
   6.89999983E-02  -6.26755413E-04
   7.99999982E-02  -6.38323021E-04
   9.09999982E-02  -6.23713771E-04
  0.101999998      -5.73942903E-04
  0.112999998      -4.80558316E-04
  0.123999998      -3.33004078E-04
  0.135000005      -1.17903561E-04
  0.145999998       1.76695554E-04
  0.157000005       5.61829773E-04
  0.167999998       1.05151662E-03
  0.179000005       1.65859889E-03
  0.189999998       2.39060121E-03
  0.201000005       3.25437728E-03
  0.211999997       4.25599562E-03
  0.223000005       5.39349020E-03
  0.233999997       6.65716548E-03
  0.245000005       8.03266931E-03
  0.256000012       9.49631725E-03
  0.266999990       1.10121630E-02
  0.277999997       1.25337848E-02
  0.289000005       1.40016926E-02
  0.300000012       1.53412223E-02
  0.310999990       1.64655186E-02
  0.321999997       1.72743779E-02
  0.333000004       1.76511854E-02
  0.344000012       1.74668916E-02
  0.354999989       1.65834222E-02
  0.365999997       1.48525164E-02
  0.377000004       1.21201528E-02
  0.388000011       8.23403057E-03
  0.398999989       3.04481923E-03
  0.409999996      -3.59087414E-03
  0.421000004      -1.17991306E-02
  0.432000011      -2.16795206E-02
  0.442999989      -3.33022065E-02
  0.453999996      -4.67016809E-02
  0.465000004      -6.18656240E-02
  0.476000011      -7.87269920E-02
  0.486999989      -9.71597731E-02
  0.497999996     -0.116972446
  0.509000003     -0.137901530
  0.519999981     -0.159610763
  0.531000018     -0.181692898
  0.541999996     -0.203669474
  0.552999973     -0.224994510
  0.564000010     -0.245065272
  0.574999988     -0.263234288
  0.586000025     -0.278822601
  0.597000003     -0.291138679
  0.607999980     -0.299499571
  0.619000018     -0.303251266
  0.629999995     -0.301795065
  0.640999973     -0.294615954
  0.652000010     -0.281305581
  0.662999988     -0.261584014
  0.674000025     -0.235324576
  0.685000002     -0.202571675
  0.695999980     -0.163550600
  0.707000017     -0.118677460
  0.717999995      -6.85625598E-02
  0.728999972      -1.40009578E-02
  0.740000010       4.40421477E-02
  0.750999987      0.104449466
  0.762000024      0.165980577
  0.773000002      0.227308124
  0.783999979      0.287054479
  0.795000017      0.343833566
  0.805999994      0.396297902
  0.816999972      0.443182677
  0.828000009      0.483347088
  0.838999987      0.515815914
  0.850000024      0.539812863
  0.861000001      0.554784179
  0.871999979      0.560419202
  0.883000016      0.556662977
  0.893999994      0.543713629
  0.904999971      0.522008777
  0.916000009      0.492211759
  0.926999986      0.455188841
  0.938000023      0.411972374
  0.949000001      0.363720179
  0.959999979      0.311678112
  0.971000016      0.257137537
  0.981999993      0.201388881
  0.992999971      0.145682290
   1.00399995       9.11946148E-02
   1.01499999       3.89952660E-02
   1.02600002      -9.98356566E-03
   1.03699994      -5.49635179E-02
   1.04799998      -9.53286141E-02
   1.05900002     -0.130633786
   1.07000005     -0.160607487
   1.08099997     -0.185141727
   1.09200001     -0.204276070
   1.10300004     -0.218182951
   1.11399996     -0.227151290
   1.12500000     -0.231564030
   1.13600004     -0.231873974
   1.14699996     -0.228582397
   1.15799999     -0.222218782
   1.16900003     -0.213320836
   1.17999995     -0.202416211
   1.19099998     -0.190007672
   1.20200002     -0.176562458
   1.21300006     -0.162505001
   1.22399998     -0.148209974
   1.23500001     -0.133997276
   1.24600005     -0.120132655
   1.25699997     -0.106829807
   1.26800001      -9.42511037E-02
   1.27900004      -8.25114250E-02
   1.28999996      -7.16860220E-02
   1.30100000      -6.18148930E-02
   1.31200004      -5.29060513E-02
   1.32299995      -4.49436344E-02
   1.33399999      -3.78950201E-02
   1.34500003      -3.17120813E-02
   1.35599995      -2.63343249E-02
   1.36699998      -2.16959286E-02
   1.37800002      -1.77291557E-02
   1.38900006      -1.43653229E-02
