 -0.959999979       0.00000000
 -0.925000012       2.04761022E-06
 -0.889999986       1.70045259E-05
 -0.855000019       5.45860821E-05
 -0.819999993       8.80491280E-05
 -0.785000026       6.90111629E-05
 -0.750000000       1.54938098E-04
 -0.714999974       6.52923249E-04
 -0.680000007       1.37077773E-03
 -0.644999981       1.82641426E-03
 -0.610000014       2.47582700E-03
 -0.574999988       4.17046435E-03
 -0.540000021       6.29514409E-03
 -0.504999995       7.50285294E-03
 -0.469999999       7.50868162E-03
 -0.435000002       5.91386342E-03
 -0.400000006       1.17749244E-03
 -0.365000010      -7.28916656E-03
 -0.330000013      -1.84433796E-02
 -0.294999987      -3.11620329E-02
 -0.259999990      -4.31239642E-02
 -0.224999994      -4.96004522E-02
 -0.189999998      -4.66753729E-02
 -0.155000001      -3.28549221E-02
 -0.119999997      -5.05002728E-03
  -8.50000009E-02   4.37549315E-02
  -5.00000007E-02  0.122455865
  -1.49999997E-02  0.239258096
   1.99999996E-02  0.392915189
   5.49999997E-02  0.551472247
   9.00000036E-02  0.629849970
  0.125000000      0.484197855
  0.159999996      -6.62059560E-02
  0.194999993      -1.18081069
  0.230000004      -2.90543079
  0.264999986      -5.07618332
  0.300000012      -7.26605225
  0.335000008      -8.81077766
  0.370000005      -8.93234730
  0.405000001      -6.94859838
  0.439999998      -2.51536465
  0.474999994       4.17385006
  0.509999990       12.2950888
  0.545000017       20.4537239
  0.579999983       26.9129848
  0.615000010       29.9551449
  0.649999976       28.2948914
  0.685000002       21.4527321
  0.720000029       9.99280548
  0.754999995      -4.46758461
  0.790000021      -19.5182934
  0.824999988      -32.4377594
  0.860000014      -40.7835960
  0.894999981      -42.9537392
  0.930000007      -38.5662193
  0.964999974      -28.5366859
   1.00000000      -14.8331680
   1.03499997       3.76484846E-03
   1.07000005       13.4312639
   1.10500002       23.4206753
   1.13999999       28.7984695
   1.17499995       29.3491840
   1.21000004       25.7033176
   1.24500000       19.0910492
   1.27999997       11.0413771
   1.31500006       3.07963109
   1.35000002      -3.53689361
   1.38499999      -8.00820446
   1.41999996      -10.0758314
   1.45500004      -9.98667526
   1.49000001      -8.34402180
   1.52499998      -5.88952875
   1.55999994      -3.29366875
   1.59500003      -1.03173435
   1.63000000      0.627504826
