 -0.800000012       0.00000000
 -0.788999975       0.00000000
 -0.777999997      -1.80621066E-06
 -0.767000020      -5.26109670E-06
 -0.755999982      -4.03047579E-07
 -0.745000005       8.20755849E-06
 -0.734000027      -6.48796174E-07
 -0.722999990      -1.36391927E-05
 -0.712000012      -4.10926805E-06
 -0.700999975       4.77984258E-06
 -0.689999998      -8.29046166E-06
 -0.679000020      -1.60321051E-05
 -0.667999983      -1.11581921E-05
 -0.657000005      -1.42558038E-05
 -0.646000028      -2.05915112E-05
 -0.634999990      -3.17659542E-05
 -0.624000013      -5.88920557E-05
 -0.612999976      -7.70785336E-05
 -0.601999998      -8.67503622E-05
 -0.591000021      -1.31836874E-04
 -0.579999983      -1.94121560E-04
 -0.569000006      -2.39178335E-04
 -0.558000028      -3.17563885E-04
 -0.546999991      -4.45177371E-04
 -0.536000013      -5.63929731E-04
 -0.524999976      -7.11063389E-04
 -0.513999999      -9.64034931E-04
 -0.503000021      -1.27786887E-03
 -0.492000014      -1.63011660E-03
 -0.481000006      -2.11681705E-03
 -0.469999999      -2.76220194E-03
 -0.458999991      -3.52781126E-03
 -0.448000014      -4.49110474E-03
 -0.437000006      -5.74895181E-03
 -0.425999999      -7.31536048E-03
 -0.414999992      -9.25643556E-03
 -0.404000014      -1.16857886E-02
 -0.393000007      -1.46593098E-02
 -0.381999999      -1.82815176E-02
 -0.370999992      -2.27393005E-02
 -0.360000014      -2.81529650E-02
 -0.349000007      -3.46356407E-02
 -0.338000000      -4.24160287E-02
 -0.326999992      -5.17014079E-02
 -0.316000015      -6.26306534E-02
 -0.305000007      -7.54397213E-02
 -0.294000000      -9.04054418E-02
 -0.282999992     -0.107691489
 -0.272000015     -0.127468154
 -0.261000007     -0.149987087
 -0.250000000     -0.175412133
 -0.238999993     -0.203801706
 -0.228000000     -0.235231698
 -0.216999993     -0.269716382
 -0.206000000     -0.307113647
 -0.194999993     -0.347209275
 -0.184000000     -0.389710635
 -0.172999993     -0.434138477
 -0.162000000     -0.479871780
 -0.150999993     -0.526197374
 -0.140000001     -0.572208881
 -0.128999993     -0.616802752
 -0.118000001     -0.658793271
 -0.107000001     -0.696885407
  -9.60000008E-02 -0.729619324
  -8.50000009E-02 -0.755479813
  -7.40000010E-02 -0.772958755
  -6.30000010E-02 -0.780500114
  -5.20000011E-02 -0.776582897
  -4.10000011E-02 -0.759870052
  -2.99999993E-02 -0.729189336
  -1.89999994E-02 -0.683530986
  -8.00000038E-03 -0.622197390
   3.00000003E-03 -0.544859767
   1.40000004E-02 -0.451526076
   2.50000004E-02 -0.342630982
   3.59999985E-02 -0.219098344
   4.69999984E-02  -8.22585225E-02
   5.79999983E-02   6.61396161E-02
   6.89999983E-02  0.223859087
   7.99999982E-02  0.388278574
   9.09999982E-02  0.556495845
  0.101999998      0.725302637
  0.112999998      0.891281247
  0.123999998       1.05099154
  0.135000005       1.20099699
  0.145999998       1.33790886
  0.157000005       1.45859623
  0.167999998       1.56029022
  0.179000005       1.64057755
  0.189999998       1.69753098
  0.201000005       1.72982645
  0.211999997       1.73669505
  0.223000005       1.71795714
  0.233999997       1.67412186
  0.245000005       1.60630929
  0.256000012       1.51614475
  0.266999990       1.40579200
  0.277999997       1.27789187
  0.289000005       1.13539171
  0.300000012      0.981496751
  0.310999990      0.819627881
  0.321999997      0.653226554
  0.333000004      0.485635191
  0.344000012      0.320106655
  0.354999989      0.159700558
  0.365999997       7.12885149E-03
  0.377000004     -0.135250941
  0.388000011     -0.265443385
  0.398999989     -0.381918341
  0.409999996     -0.483607501
  0.421000004     -0.569818974
  0.432000011     -0.640275061
  0.442999989     -0.695146739
  0.453999996     -0.734933019
  0.465000004     -0.760391474
  0.476000011     -0.772572696
  0.486999989     -0.772730291
  0.497999996     -0.762190998
  0.509000003     -0.742392600
  0.519999981     -0.714881361
  0.531000018     -0.681140065
  0.541999996     -0.642542899
  0.552999973     -0.600448132
  0.564000010     -0.556132138
  0.574999988     -0.510682881
  0.586000025     -0.465072274
  0.597000003     -0.420181811
  0.607999980     -0.376694143
  0.619000018     -0.335121632
  0.629999995     -0.295913130
  0.640999973     -0.259400398
  0.652000010     -0.225754440
  0.662999988     -0.195075095
  0.674000025     -0.167397246
  0.685000002     -0.142639637
  0.695999980     -0.120686755
  0.707000017     -0.101438008
  0.717999995      -8.47141892E-02
  0.728999972      -7.02698007E-02
  0.740000010      -5.79075329E-02
  0.750999987      -4.74424660E-02
  0.762000024      -3.86321917E-02
  0.773000002      -3.12615447E-02
  0.783999979      -2.51792558E-02
  0.795000017      -2.01999620E-02
  0.805999994      -1.61148496E-02
  0.816999972      -1.27935745E-02
  0.828000009      -1.01461839E-02
  0.838999987      -8.04481469E-03
  0.850000024      -6.37576403E-03
  0.861000001      -5.07446239E-03
  0.871999979      -4.06659069E-03
  0.883000016      -3.27585870E-03
  0.893999994      -2.67505716E-03
  0.904999971      -2.24097678E-03
  0.916000009      -1.91631797E-03
  0.926999986      -1.66511058E-03
  0.938000023      -1.47945876E-03
  0.949000001      -1.32940093E-03
  0.959999979      -1.19148882E-03
  0.971000016      -1.07791158E-03
  0.981999993      -9.75325645E-04
  0.992999971      -8.40615830E-04
   1.00399995      -6.77725126E-04
   1.01499999      -5.19490568E-04
   1.02600002      -3.58263700E-04
   1.03699994      -1.79052062E-04
   1.04799998       6.78045808E-07
   1.05900002       1.74601271E-04
   1.07000005       3.52939009E-04
   1.08099997       5.16993343E-04
   1.09200001       6.40119601E-04
   1.10300004       7.28074985E-04
   1.11399996       7.92411098E-04
   1.12500000       8.27098265E-04
   1.13600004       8.27630924E-04
   1.14699996       7.94245687E-04
   1.15799999       7.26137543E-04
   1.16900003       6.34020136E-04
   1.17999995       5.34278515E-04
   1.19099998       4.28240717E-04
   1.20200002       3.10300529E-04
   1.21300006       1.84293953E-04
   1.22399998       5.75751001E-05
   1.23500001      -6.39712889E-05
   1.24600005      -1.71570980E-04
   1.25699997      -2.60358356E-04
   1.26800001      -3.38669546E-04
   1.27900004      -4.17842006E-04
   1.28999996      -4.94074251E-04
   1.30100000      -5.51972305E-04
   1.31200004      -5.87433053E-04
   1.32299995      -6.11751806E-04
   1.33399999      -6.29579765E-04
   1.34500003      -6.32613839E-04
   1.35599995      -6.16181002E-04
   1.36699998      -5.80271590E-04
   1.37800002      -5.20500180E-04
   1.38900006      -4.38627729E-04
