 -0.800000012       0.00000000
 -0.788999975       0.00000000
 -0.777999997       0.00000000
 -0.767000020       8.65937842E-25
 -0.755999982      -5.62106294E-19
 -0.745000005       4.93551292E-18
 -0.734000027      -1.68950753E-16
 -0.722999990       3.70701852E-16
 -0.712000012       2.00679681E-15
 -0.700999975      -8.56962630E-15
 -0.689999998       1.41151042E-15
 -0.679000020       4.36698034E-14
 -0.667999983      -9.46891627E-14
 -0.657000005      -1.42981940E-14
 -0.646000028       4.76147767E-13
 -0.634999990      -3.89464014E-13
 -0.624000013      -1.18561411E-12
 -0.612999976       1.45913425E-12
 -0.601999998       1.71221381E-12
 -0.591000021      -2.71240083E-12
 -0.579999983      -1.02720068E-12
 -0.569000006       2.50071123E-12
 -0.558000028      -1.94788261E-12
 -0.546999991       1.21659237E-12
 -0.536000013       7.31833951E-12
 -0.524999976      -8.95828117E-12
 -0.513999999      -1.25083633E-11
 -0.503000021       1.40631586E-11
 -0.492000014       1.20812388E-11
 -0.481000006      -1.06088597E-12
 -0.469999999      -1.56065091E-11
 -0.458999991      -5.34316272E-11
 -0.448000014       5.14929661E-11
 -0.437000006       1.65718481E-10
 -0.425999999      -1.47393139E-10
 -0.414999992      -2.96955904E-10
 -0.404000014       3.36681655E-10
 -0.393000007       3.21378618E-10
 -0.381999999      -6.33978425E-10
 -0.370999992      -7.92795135E-11
 -0.360000014       9.56530188E-10
 -0.349000007      -4.26156749E-10
 -0.338000000      -1.07024378E-09
 -0.326999992       9.66396518E-10
 -0.316000015       8.26935964E-10
 -0.305000007      -1.21438326E-09
 -0.294000000      -4.27332253E-10
 -0.282999992       1.03510200E-09
 -0.272000015       4.67504591E-10
 -0.261000007      -1.10605292E-09
 -0.250000000      -2.12401718E-09
 -0.238999993       3.15197268E-09
 -0.228000000       7.60845431E-09
 -0.216999993      -7.38027728E-09
 -0.206000000      -1.83878601E-08
 -0.194999993       8.90237573E-09
 -0.184000000       2.91904723E-08
 -0.172999993      -1.37771849E-09
 -0.162000000      -2.81557675E-08
 -0.150999993      -1.50861723E-08
 -0.140000001       6.76122802E-09
 -0.128999993       2.80025212E-08
 -0.118000001       2.12397566E-08
 -0.107000001      -2.96097120E-08
  -9.60000008E-02  -3.04660759E-08
  -8.50000009E-02   3.54819818E-08
  -7.40000010E-02   2.27046915E-08
  -6.30000010E-02  -6.51537775E-08
  -5.20000011E-02  -4.25477573E-08
  -4.10000011E-02   9.18260170E-08
  -2.99999993E-02   1.09625674E-07
  -1.89999994E-02  -6.43118767E-08
  -8.00000038E-03  -1.82157692E-07
   3.00000003E-03  -8.32671099E-10
   1.40000004E-02   2.42648156E-07
   2.50000004E-02   7.27600025E-08
   3.59999985E-02  -2.93651055E-07
   4.69999984E-02  -1.67714987E-07
   5.79999983E-02   2.66352345E-07
   6.89999983E-02   2.57352923E-07
   7.99999982E-02  -6.47714700E-08
   9.09999982E-02  -8.66997425E-08
  0.101999998      -9.58619317E-09
  0.112999998      -2.31927189E-07
  0.123999998      -2.80355806E-07
  0.135000005       3.30981237E-07
  0.145999998       7.33270554E-07
  0.157000005       2.21945076E-08
  0.167999998      -1.01436888E-06
  0.179000005      -7.72458691E-07
  0.189999998       6.44587715E-07
  0.201000005       1.11498196E-06
  0.211999997       2.33480080E-07
  0.223000005      -5.61596153E-07
  0.233999997      -9.46823661E-07
  0.245000005      -5.83921747E-07
  0.256000012       6.66113806E-07
  0.266999990       1.17768957E-06
  0.277999997       2.05027263E-07
  0.289000005      -9.37276013E-07
  0.300000012      -1.25507609E-06
  0.310999990       2.99195705E-07
  0.321999997       2.57031797E-06
  0.333000004       9.61210390E-07
  0.344000012      -2.69576230E-06
  0.354999989      -1.47461049E-06
  0.365999997       1.11994189E-06
  0.377000004      -5.21028539E-07
  0.388000011      -3.31873309E-07
  0.398999989       1.99184296E-06
  0.409999996      -1.41665524E-07
  0.421000004      -2.25541748E-06
  0.432000011      -8.95712446E-08
  0.442999989       1.37113545E-06
  0.453999996       8.48945490E-07
  0.465000004       1.52641542E-06
  0.476000011       5.61366505E-07
  0.486999989      -2.86510272E-06
  0.497999996      -1.74936417E-06
  0.509000003       2.67910536E-06
  0.519999981       3.42431775E-07
  0.531000018      -1.90056892E-06
  0.541999996       2.28689282E-06
  0.552999973       5.84409804E-07
  0.564000010      -2.83995860E-06
  0.574999988      -4.32876362E-07
  0.586000025      -1.54823780E-07
  0.597000003      -1.20634093E-06
  0.607999980       2.07454559E-06
  0.619000018       2.00363729E-06
  0.629999995      -2.97412907E-06
  0.640999973      -8.33703041E-07
  0.652000010       3.57787144E-06
  0.662999988       9.10484630E-07
  0.674000025      -2.79927917E-07
  0.685000002       2.78717380E-06
  0.695999980      -1.11669658E-06
  0.707000017      -6.07808488E-06
  0.717999995      -1.86529883E-06
  0.728999972       2.30910723E-06
  0.740000010       2.34961499E-06
  0.750999987      -1.76832100E-06
  0.762000024      -6.18083823E-06
  0.773000002       1.96276665E-06
  0.783999979       1.18004073E-05
  0.795000017       3.87309728E-06
  0.805999994      -8.31334819E-06
  0.816999972      -5.12761108E-06
  0.828000009       4.49091976E-06
  0.838999987       1.95238636E-06
  0.850000024      -2.30936053E-06
  0.861000001       1.18890966E-06
  0.871999979      -2.02794649E-06
  0.883000016      -6.52805375E-06
  0.893999994       3.41099030E-06
  0.904999971       1.14177110E-05
  0.916000009      -2.04424083E-07
  0.926999986      -8.21364119E-06
  0.938000023       2.35798620E-06
  0.949000001       3.94472636E-06
  0.959999979      -8.56041152E-06
  0.971000016      -3.86966394E-06
  0.981999993       9.62041668E-06
  0.992999971      -7.91794207E-07
   1.00399995      -1.24685839E-05
   1.01499999       1.84030944E-06
   1.02600002       8.96321126E-06
   1.03699994      -1.46320610E-06
   1.04799998       1.55029966E-06
   1.05900002       4.88324758E-06
   1.07000005      -8.14643317E-06
   1.08099997      -4.56653152E-06
   1.09200001       1.24716071E-05
   1.10300004       2.44535750E-06
   1.11399996      -1.04376140E-05
   1.12500000       4.96097300E-06
   1.13600004       7.23746552E-06
   1.14699996      -1.24368571E-05
   1.15799999      -6.49227877E-06
   1.16900003       1.06950738E-05
   1.17999995       9.47481283E-07
   1.19099998      -5.30117859E-06
   1.20200002       9.55865016E-06
   1.21300006       5.27110342E-06
   1.22399998      -1.42379504E-05
   1.23500001      -7.64146534E-06
   1.24600005       6.22379503E-06
   1.25699997      -6.70843974E-07
   1.26800001       1.35331754E-06
   1.27900004       1.57973045E-05
   1.28999996       2.04910793E-06
   1.30100000      -1.87661699E-05
   1.31200004      -3.91449839E-06
   1.32299995       9.34503078E-06
   1.33399999      -6.62590401E-06
   1.34500003      -5.76477214E-06
   1.35599995       1.37137649E-05
   1.36699998       4.29929469E-06
   1.37800002      -1.06294665E-05
   1.38900006       5.82676967E-06
