 -0.959999979       0.00000000
 -0.925000012      -2.47613790E-21
 -0.889999986      -5.24690176E-06
 -0.855000019      -7.35618305E-05
 -0.819999993      -3.33958269E-05
 -0.785000026       1.03687853E-04
 -0.750000000      -1.86826030E-04
 -0.714999974      -7.34241272E-04
 -0.680000007      -7.09927932E-04
 -0.644999981      -5.85536356E-04
 -0.610000014      -1.46003603E-03
 -0.574999988      -2.86702858E-03
 -0.540000021      -3.91816162E-03
 -0.504999995      -4.67131240E-03
 -0.469999999      -4.74722730E-03
 -0.435000002      -3.69394221E-03
 -0.400000006      -2.45501287E-03
 -0.365000010      -1.49743166E-03
 -0.330000013      -6.43224805E-04
 -0.294999987      -3.64569924E-03
 -0.259999990      -1.89705417E-02
 -0.224999994      -5.60133867E-02
 -0.189999998     -0.125702292
 -0.155000001     -0.242211893
 -0.119999997     -0.417119354
  -8.50000009E-02 -0.650355697
  -5.00000007E-02 -0.921682000
  -1.49999997E-02  -1.17847431
   1.99999996E-02  -1.32690597
   5.49999997E-02  -1.24046683
   9.00000036E-02 -0.787546933
  0.125000000      0.123361468
  0.159999996       1.48362195
  0.194999993       3.13663244
  0.230000004       4.77846718
  0.264999986       6.01410198
  0.300000012       6.45526934
  0.335000008       5.84010553
  0.370000005       4.12882233
  0.405000001       1.52267158
  0.439999998      -1.59622526
  0.474999994      -4.76360369
  0.509999990      -7.53350878
  0.545000017      -9.54905033
  0.579999983      -10.5610857
  0.615000010      -10.4155426
  0.649999976      -9.05496407
  0.685000002      -6.54527903
  0.720000029      -3.10912299
  0.754999995      0.855188370
  0.790000021       4.79984999
  0.824999988       8.12205887
  0.860000014       10.3023319
  0.894999981       11.0316687
  0.930000007       10.2842865
  0.964999974       8.31010056
   1.00000000       5.54339981
   1.03499997       2.47005510
   1.07000005     -0.484311610
   1.10500002      -3.00890565
   1.13999999      -4.90286303
   1.17499995      -6.03635931
   1.21000004      -6.32641554
   1.24500000      -5.76192045
   1.27999997      -4.45865107
   1.31500006      -2.68899179
   1.35000002     -0.841862142
   1.38499999      0.691302896
   1.41999996       1.65766311
   1.45500004       2.02933621
   1.49000001       1.97527111
   1.52499998       1.73339093
   1.55999994       1.46546912
   1.59500003       1.18724132
   1.63000000      0.816161275
