 -0.959999979       0.00000000
 -0.925000012       0.00000000
 -0.889999986       6.90793690E-12
 -0.855000019      -1.62991942E-09
 -0.819999993       7.57418750E-09
 -0.785000026      -9.89752635E-09
 -0.750000000       3.38008626E-08
 -0.714999974      -7.34307859E-09
 -0.680000007       5.47509025E-08
 -0.644999981       1.34499146E-07
 -0.610000014      -3.87470209E-07
 -0.574999988      -4.88104547E-07
 -0.540000021       1.58227692E-07
 -0.504999995       2.26785369E-06
 -0.469999999      -6.25305302E-06
 -0.435000002       3.05071899E-06
 -0.400000006       6.55641270E-06
 -0.365000010      -5.79214475E-06
 -0.330000013      -9.13986753E-07
 -0.294999987       7.51451444E-06
 -0.259999990      -1.38727519E-05
 -0.224999994       1.17395939E-05
 -0.189999998      -5.98779343E-06
 -0.155000001       2.15332602E-05
 -0.119999997      -2.12488139E-05
  -8.50000009E-02   5.13672558E-06
  -5.00000007E-02   3.83022962E-06
  -1.49999997E-02  -6.43630701E-05
   1.99999996E-02   3.71739989E-05
   5.49999997E-02   1.31263514E-04
   9.00000036E-02  -8.78866995E-05
  0.125000000      -1.32913381E-04
  0.159999996       1.10661065E-04
  0.194999993      -8.28017255E-06
  0.230000004      -6.51776145E-06
  0.264999986       8.50256838E-05
  0.300000012      -7.46164442E-05
  0.335000008      -7.31573091E-05
  0.370000005       7.59249524E-05
  0.405000001       1.67509315E-05
  0.439999998      -1.13762599E-05
  0.474999994       1.26016284E-05
  0.509999990       9.96934068E-06
  0.545000017      -1.02115882E-05
  0.579999983      -2.07111098E-05
  0.615000010      -7.16723225E-05
  0.649999976       1.94044696E-05
  0.685000002       1.43480938E-04
  0.720000029       1.69937102E-05
  0.754999995      -2.05064804E-04
  0.790000021       2.54533898E-05
  0.824999988       2.36241700E-04
  0.860000014      -1.33204041E-04
  0.894999981      -2.36683787E-04
  0.930000007       2.07039688E-04
  0.964999974       2.01538671E-04
   1.00000000      -2.30792881E-04
   1.03499997      -8.95973208E-05
   1.07000005       2.39487941E-04
   1.10500002      -4.75911474E-05
   1.13999999      -2.69509648E-04
   1.17499995       1.35035385E-04
   1.21000004       2.68990931E-04
   1.24500000      -1.69923529E-04
   1.27999997      -2.28129356E-04
   1.31500006       1.91759755E-04
   1.35000002       1.93157059E-04
   1.38499999      -2.24949588E-04
   1.41999996      -1.89162762E-04
   1.45500004       2.42078138E-04
   1.49000001       2.02882729E-04
   1.52499998      -2.09380989E-04
   1.55999994      -1.63015269E-04
   1.59500003       1.73816530E-04
   1.63000000       5.82480970E-05
