 -0.959999979       0.00000000
 -0.925000012      -6.82539962E-07
 -0.889999986      -1.09766700E-06
 -0.855000019      -1.48426750E-06
 -0.819999993      -3.44624436E-06
 -0.785000026      -8.10779875E-06
 -0.750000000      -1.65171696E-05
 -0.714999974      -3.04312762E-05
 -0.680000007      -5.25212126E-05
 -0.644999981      -8.66513219E-05
 -0.610000014      -1.34279471E-04
 -0.574999988      -1.88491467E-04
 -0.540000021      -2.32556049E-04
 -0.504999995      -2.38702531E-04
 -0.469999999      -1.62891534E-04
 -0.435000002       5.15865249E-05
 -0.400000006       4.54392808E-04
 -0.365000010       1.06169190E-03
 -0.330000013       1.82295882E-03
 -0.294999987       2.57977820E-03
 -0.259999990       3.04650026E-03
 -0.224999994       2.84666917E-03
 -0.189999998       1.59900927E-03
 -0.155000001      -9.74272378E-04
 -0.119999997      -4.94409306E-03
  -8.50000009E-02  -1.01321936E-02
  -5.00000007E-02  -1.62083264E-02
  -1.49999997E-02  -2.29526348E-02
   1.99999996E-02  -3.06123942E-02
   5.49999997E-02  -4.02058214E-02
   9.00000036E-02  -5.35783581E-02
  0.125000000      -7.30208829E-02
  0.159999996     -0.100377850
  0.194999993     -0.135802448
  0.230000004     -0.176548287
  0.264999986     -0.216315448
  0.300000012     -0.245626673
  0.335000008     -0.253446430
  0.370000005     -0.229812980
  0.405000001     -0.168807864
  0.439999998      -7.09510297E-02
  0.474999994       5.58072180E-02
  0.509999990      0.196924701
  0.545000017      0.333779484
  0.579999983      0.447192222
  0.615000010      0.521063387
  0.649999976      0.545294702
  0.685000002      0.517423868
  0.720000029      0.442756951
  0.754999995      0.333093077
  0.790000021      0.204352766
  0.824999988       7.35911950E-02
  0.860000014      -4.39762436E-02
  0.894999981     -0.137287438
  0.930000007     -0.200623170
  0.964999974     -0.233542904
   1.00000000     -0.239802003
   1.03499997     -0.225750953
   1.07000005     -0.198747650
   1.10500002     -0.165893286
   1.13999999     -0.133121982
   1.17499995     -0.104552135
   1.21000004      -8.20840001E-02
   1.24500000      -6.53667450E-02
   1.27999997      -5.22989221E-02
   1.31500006      -4.00668085E-02
   1.35000002      -2.64198948E-02
   1.38499999      -1.06527917E-02
   1.41999996       6.16790680E-03
   1.45500004       2.18146425E-02
   1.49000001       3.39690857E-02
   1.52499998       4.11309600E-02
   1.55999994       4.28976491E-02
   1.59500003       3.96027081E-02
   1.63000000       3.17375101E-02
