 -0.959999979       0.00000000
 -0.925000012       3.58333807E-08
 -0.889999986       3.69247715E-07
 -0.855000019       1.62208391E-06
 -0.819999993       4.11819792E-06
 -0.785000026       6.86676094E-06
 -0.750000000       1.07858905E-05
 -0.714999974       2.49234872E-05
 -0.680000007       6.03382723E-05
 -0.644999981       1.16289171E-04
 -0.610000014       1.91578467E-04
 -0.574999988       3.07888695E-04
 -0.540000021       4.91037150E-04
 -0.504999995       7.32502434E-04
 -0.469999999       9.95203853E-04
 -0.435000002       1.23009726E-03
 -0.400000006       1.35419762E-03
 -0.365000010       1.24724652E-03
 -0.330000013       7.96926324E-04
 -0.294999987      -7.11754838E-05
 -0.259999990      -1.37118576E-03
 -0.224999994      -2.99385656E-03
 -0.189999998      -4.67867777E-03
 -0.155000001      -6.07045926E-03
 -0.119999997      -6.73379749E-03
  -8.50000009E-02  -6.05647918E-03
  -5.00000007E-02  -3.14780464E-03
  -1.49999997E-02   3.18222865E-03
   1.99999996E-02   1.42453089E-02
   5.49999997E-02   3.07720397E-02
   9.00000036E-02   5.14451340E-02
  0.125000000       7.09410384E-02
  0.159999996       7.82559514E-02
  0.194999993       5.64332493E-02
  0.230000004      -1.50757674E-02
  0.264999986     -0.154753923
  0.300000012     -0.370743126
  0.335000008     -0.652087510
  0.370000005     -0.962592006
  0.405000001      -1.24050891
  0.439999998      -1.40612900
  0.474999994      -1.37710607
  0.509999990      -1.08889949
  0.545000017     -0.515794992
  0.579999983      0.313121557
  0.615000010       1.30831277
  0.649999976       2.32768846
  0.685000002       3.19827151
  0.720000029       3.74856877
  0.754999995       3.84526253
  0.790000021       3.42551303
  0.824999988       2.51628280
  0.860000014       1.23490834
  0.894999981     -0.230496049
  0.930000007      -1.65709615
  0.964999974      -2.83139706
   1.00000000      -3.59036803
   1.03499997      -3.84988165
   1.07000005      -3.61477065
   1.10500002      -2.96986508
   1.13999999      -2.05603218
   1.17499995      -1.03844869
   1.21000004      -7.50288963E-02
   1.24500000      0.708874226
   1.27999997       1.23619342
   1.31500006       1.48331261
   1.35000002       1.47531056
   1.38499999       1.27326894
   1.41999996      0.956795990
   1.45500004      0.605703771
   1.49000001      0.284919769
   1.52499998       3.58334891E-02
   1.55999994     -0.124873258
   1.59500003     -0.200568438
   1.63000000     -0.207643673
