 -0.959999979       0.00000000
 -0.925000012       0.00000000
 -0.889999986      -1.72071253E-07
 -0.855000019      -1.94148902E-06
 -0.819999993      -5.00256556E-06
 -0.785000026      -8.94550340E-06
 -0.750000000      -1.98639027E-05
 -0.714999974      -4.68804501E-05
 -0.680000007      -9.82942147E-05
 -0.644999981      -1.92882697E-04
 -0.610000014      -3.66944296E-04
 -0.574999988      -6.67830056E-04
 -0.540000021      -1.15455268E-03
 -0.504999995      -1.89705088E-03
 -0.469999999      -2.95281736E-03
 -0.435000002      -4.33865096E-03
 -0.400000006      -6.00330904E-03
 -0.365000010      -7.77835259E-03
 -0.330000013      -9.33855586E-03
 -0.294999987      -1.02299927E-02
 -0.259999990      -9.95597430E-03
 -0.224999994      -8.10005888E-03
 -0.189999998      -4.50896611E-03
 -0.155000001       5.03559480E-04
 -0.119999997       6.04486512E-03
  -8.50000009E-02   1.06708324E-02
  -5.00000007E-02   1.25407157E-02
  -1.49999997E-02   9.71043482E-03
   1.99999996E-02   5.07711258E-04
   5.49999997E-02  -1.61681399E-02
   9.00000036E-02  -4.06907424E-02
  0.125000000      -7.26201609E-02
  0.159999996     -0.110612601
  0.194999993     -0.152266160
  0.230000004     -0.193832889
  0.264999986     -0.229900047
  0.300000012     -0.253384352
  0.335000008     -0.256177574
  0.370000005     -0.230573460
  0.405000001     -0.171344310
  0.439999998      -7.79518187E-02
  0.474999994       4.39414568E-02
  0.509999990      0.182388201
  0.545000017      0.320741534
  0.579999983      0.440595180
  0.615000010      0.525274992
  0.649999976      0.562856078
  0.685000002      0.547974944
  0.720000029      0.482296616
  0.754999995      0.373913288
  0.790000021      0.236079291
  0.824999988       8.55875462E-02
  0.860000014      -5.91928773E-02
  0.894999981     -0.180779189
  0.930000007     -0.265456945
  0.964999974     -0.306006849
   1.00000000     -0.303371280
   1.03499997     -0.266411275
   1.07000005     -0.209420592
   1.10500002     -0.147970721
   1.13999999      -9.45143923E-02
   1.17499995      -5.54205924E-02
   1.21000004      -3.05649377E-02
   1.24500000      -1.54963732E-02
   1.27999997      -5.01380302E-03
   1.31500006       3.68471886E-03
   1.35000002       9.84192081E-03
   1.38499999       1.04254819E-02
   1.41999996       2.98509258E-03
   1.45500004      -1.16487173E-02
   1.49000001      -2.85075977E-02
   1.52499998      -4.01627049E-02
   1.55999994      -4.01853547E-02
   1.59500003      -2.65764128E-02
   1.63000000      -3.27320257E-03
