 -0.959999979       0.00000000
 -0.925000012      -9.20733811E-22
 -0.889999986      -1.84423775E-21
 -0.855000019      -2.99587232E-13
 -0.819999993      -1.42684259E-12
 -0.785000026       1.73260234E-12
 -0.750000000       4.01743265E-12
 -0.714999974       2.02393484E-12
 -0.680000007      -1.40554833E-11
 -0.644999981      -6.24000851E-11
 -0.610000014       9.09328515E-11
 -0.574999988       2.81387608E-10
 -0.540000021      -5.25191168E-10
 -0.504999995      -1.72998571E-09
 -0.469999999      -1.04684506E-09
 -0.435000002       3.16588844E-09
 -0.400000006       3.00145886E-09
 -0.365000010      -1.41695011E-09
 -0.330000013      -5.46589707E-09
 -0.294999987       1.16086589E-08
 -0.259999990      -1.92176297E-09
 -0.224999994      -6.17337648E-08
 -0.189999998       3.54617633E-08
 -0.155000001       1.30426486E-07
 -0.119999997      -5.78307109E-08
  -8.50000009E-02  -1.85694674E-07
  -5.00000007E-02  -2.30403820E-08
  -1.49999997E-02   1.70805777E-07
   1.99999996E-02   1.35980244E-07
   5.49999997E-02  -1.84259008E-07
   9.00000036E-02  -2.50569428E-07
  0.125000000       3.01682064E-07
  0.159999996       2.82850351E-07
  0.194999993      -4.62560536E-07
  0.230000004      -5.44730518E-08
  0.264999986       7.35487731E-07
  0.300000012      -9.31423187E-08
  0.335000008      -7.22652430E-07
  0.370000005       2.71401674E-08
  0.405000001       3.38914276E-07
  0.439999998      -1.25700240E-07
  0.474999994      -3.55667879E-07
  0.509999990      -1.05133013E-08
  0.545000017       7.17307159E-07
  0.579999983       7.36497498E-07
  0.615000010      -1.83562918E-07
  0.649999976      -7.90185254E-07
  0.685000002      -8.00387113E-07
  0.720000029      -6.73662669E-07
  0.754999995       3.84155271E-07
  0.790000021       1.82918768E-06
  0.824999988       8.15562828E-07
  0.860000014      -1.51139852E-06
  0.894999981      -1.84712167E-06
  0.930000007      -3.87989019E-07
  0.964999974       1.64194591E-06
   1.00000000       2.23158918E-06
   1.03499997      -2.82559512E-07
   1.07000005      -2.65758854E-06
   1.10500002      -1.17549530E-06
   1.13999999       2.00674617E-06
   1.17499995       2.62998378E-06
   1.21000004       2.85638151E-07
   1.24500000      -2.51975666E-06
   1.27999997      -2.61605692E-06
   1.31500006       4.72535191E-07
   1.35000002       2.43241516E-06
   1.38499999       1.10441204E-06
   1.41999996      -5.96769610E-07
   1.45500004      -1.05035701E-06
   1.49000001      -9.06274408E-07
   1.52499998      -1.58998631E-07
   1.55999994       8.94464222E-07
   1.59500003       1.08069526E-06
   1.63000000       1.69595879E-07
