 -0.959999979       0.00000000
 -0.925000012      -1.40466349E-04
 -0.889999986      -1.30395649E-03
 -0.855000019      -1.05441525E-03
 -0.819999993      -7.19886099E-04
 -0.785000026      -5.69425430E-03
 -0.750000000      -1.31413564E-02
 -0.714999974      -1.99160837E-02
 -0.680000007      -3.52446884E-02
 -0.644999981      -6.48759827E-02
 -0.610000014     -0.103529848
 -0.574999988     -0.151703939
 -0.540000021     -0.208795995
 -0.504999995     -0.255728781
 -0.469999999     -0.269443005
 -0.435000002     -0.227612540
 -0.400000006      -9.01116803E-02
 -0.365000010      0.175380498
 -0.330000013      0.545938075
 -0.294999987      0.951381266
 -0.259999990       1.29135704
 -0.224999994       1.41646683
 -0.189999998       1.16032851
 -0.155000001      0.431694657
 -0.119999997     -0.747209728
  -8.50000009E-02  -2.24991870
  -5.00000007E-02  -3.83683491
  -1.49999997E-02  -5.20195532
   1.99999996E-02  -6.10055876
   5.49999997E-02  -6.40551138
   9.00000036E-02  -6.04639721
  0.125000000      -4.94940758
  0.159999996      -2.98864818
  0.194999993       7.09530786E-02
  0.230000004       4.48944283
  0.264999986       10.2715731
  0.300000012       16.8907127
  0.335000008       23.1815243
  0.370000005       27.4490452
  0.405000001       27.8885231
  0.439999998       23.2659645
  0.474999994       13.5128489
  0.509999990      -7.63230547E-02
  0.545000017      -15.1016207
  0.579999983      -28.7132111
  0.615000010      -38.4481392
  0.649999976      -42.8263474
  0.685000002      -41.4670181
  0.720000029      -34.8611946
  0.754999995      -24.0412884
  0.790000021      -10.3328209
  0.824999988       4.66210794
  0.860000014       18.9338379
  0.894999981       30.1295414
  0.930000007       36.0229492
  0.964999974       35.2534714
   1.00000000       28.0199165
   1.03499997       16.3514328
   1.07000005       3.64000630
   1.10500002      -6.52534628
   1.13999999      -11.7242689
   1.17499995      -11.6228552
   1.21000004      -7.98960257
   1.24500000      -3.74378848
   1.27999997      -1.45631206
   1.31500006      -2.07444191
   1.35000002      -4.54994392
   1.38499999      -6.55029058
   1.41999996      -5.87219858
   1.45500004      -1.81628728
   1.49000001       4.24798965
   1.52499998       9.49586487
   1.55999994       11.1278944
   1.59500003       7.91370821
   1.63000000      0.981083095
