 -0.959999979       0.00000000
 -0.925000012      -1.56157921E-06
 -0.889999986      -2.14565116E-05
 -0.855000019      -6.01385073E-05
 -0.819999993      -9.53958515E-05
 -0.785000026      -1.86017176E-04
 -0.750000000      -4.56499081E-04
 -0.714999974      -9.73185408E-04
 -0.680000007      -1.83675368E-03
 -0.644999981      -3.34954541E-03
 -0.610000014      -5.91886370E-03
 -0.574999988      -9.88444593E-03
 -0.540000021      -1.54537521E-02
 -0.504999995      -2.25211848E-02
 -0.469999999      -3.03709358E-02
 -0.435000002      -3.74984555E-02
 -0.400000006      -4.15612757E-02
 -0.365000010      -3.96540165E-02
 -0.330000013      -2.94461884E-02
 -0.294999987      -1.12245316E-02
 -0.259999990       9.85114090E-03
 -0.224999994       2.21606642E-02
 -0.189999998       7.86477327E-03
 -0.155000001      -5.35261221E-02
 -0.119999997     -0.177520469
  -8.50000009E-02 -0.364043027
  -5.00000007E-02 -0.586883962
  -1.49999997E-02 -0.787944674
   1.99999996E-02 -0.881735921
   5.49999997E-02 -0.773628235
   9.00000036E-02 -0.390534729
  0.125000000      0.283292383
  0.159999996       1.17789447
  0.194999993       2.13109326
  0.230000004       2.91381073
  0.264999986       3.28645134
  0.300000012       3.07248950
  0.335000008       2.22516751
  0.370000005      0.860855877
  0.405000001     -0.758246183
  0.439999998      -2.29084969
  0.474999994      -3.41194654
  0.509999990      -3.90419960
  0.545000017      -3.71375847
  0.579999983      -2.95280957
  0.615000010      -1.85201645
  0.649999976     -0.683680058
  0.685000002      0.316324532
  0.720000029       1.00351918
  0.754999995       1.34356344
  0.790000021       1.39519382
  0.824999988       1.26865482
  0.860000014       1.07648587
  0.894999981      0.894040525
  0.930000007      0.742856145
  0.964999974      0.600976229
   1.00000000      0.433013201
   1.03499997      0.223791465
   1.07000005      -2.70995963E-03
   1.10500002     -0.190291420
   1.13999999     -0.280322433
   1.17499995     -0.247665390
   1.21000004     -0.121278621
   1.24500000       2.43211705E-02
   1.27999997      0.104273356
   1.31500006       6.69123977E-02
   1.35000002      -7.85016567E-02
   1.38499999     -0.265651882
   1.41999996     -0.404784650
   1.45500004     -0.427774072
   1.49000001     -0.320533097
   1.52499998     -0.126574785
   1.55999994       7.79271200E-02
   1.59500003      0.222018063
   1.63000000      0.270078361
