 -0.959999979       0.00000000
 -0.925000012       0.00000000
 -0.889999986      -3.22577668E-24
 -0.855000019       6.42744391E-09
 -0.819999993       1.02968038E-07
 -0.785000026       2.40418416E-07
 -0.750000000       2.50851031E-07
 -0.714999974       4.90145737E-07
 -0.680000007       1.62888489E-06
 -0.644999981       3.63728259E-06
 -0.610000014       6.36296227E-06
 -0.574999988       1.08771828E-05
 -0.540000021       1.89035072E-05
 -0.504999995       3.17295489E-05
 -0.469999999       5.02779658E-05
 -0.435000002       7.46417427E-05
 -0.400000006       1.03530561E-04
 -0.365000010       1.35426715E-04
 -0.330000013       1.69157298E-04
 -0.294999987       2.03675838E-04
 -0.259999990       2.42660506E-04
 -0.224999994       3.04884685E-04
 -0.189999998       4.35725116E-04
 -0.155000001       7.20550248E-04
 -0.119999997       1.30208512E-03
  -8.50000009E-02   2.39459262E-03
  -5.00000007E-02   4.28378489E-03
  -1.49999997E-02   7.30203791E-03
   1.99999996E-02   1.17639275E-02
   5.49999997E-02   1.78512782E-02
   9.00000036E-02   2.54581962E-02
  0.125000000       3.40298563E-02
  0.159999996       4.24504057E-02
  0.194999993       4.90535088E-02
  0.230000004       5.18142171E-02
  0.264999986       4.87213023E-02
  0.300000012       3.82611230E-02
  0.335000008       1.98932439E-02
  0.370000005      -5.62875392E-03
  0.405000001      -3.62085588E-02
  0.439999998      -6.86536431E-02
  0.474999994      -9.91433784E-02
  0.509999990     -0.123797670
  0.545000017     -0.139223382
  0.579999983     -0.142951444
  0.615000010     -0.133742228
  0.649999976     -0.111774035
  0.685000002      -7.87135139E-02
  0.720000029      -3.76349725E-02
  0.754999995       7.25228386E-03
  0.790000021       5.10919057E-02
  0.824999988       8.90516341E-02
  0.860000014      0.117061816
  0.894999981      0.132451653
  0.930000007      0.134327680
  0.964999974      0.123605490
   1.00000000      0.102703504
   1.03499997       7.50108585E-02
   1.07000005       4.42923680E-02
   1.10500002       1.41671356E-02
   1.13999999      -1.22721884E-02
   1.17499995      -3.27055007E-02
   1.21000004      -4.57442701E-02
   1.24500000      -5.10331690E-02
   1.27999997      -4.92637157E-02
   1.31500006      -4.20324318E-02
   1.35000002      -3.15071195E-02
   1.38499999      -1.99505296E-02
   1.41999996      -9.24079679E-03
   1.45500004      -5.61703055E-04
   1.49000001       5.63145941E-03
   1.52499998       9.40492563E-03
   1.55999994       1.10549964E-02
   1.59500003       1.09098423E-02
   1.63000000       9.31028090E-03
