 -0.800000012       0.00000000
 -0.788999975       0.00000000
 -0.777999997       0.00000000
 -0.767000020       0.00000000
 -0.755999982      -1.77686265E-24
 -0.745000005      -1.25041346E-16
 -0.734000027      -3.75124026E-16
 -0.722999990      -3.62619887E-15
 -0.712000012       6.25206877E-16
 -0.700999975       6.87727395E-15
 -0.689999998      -1.08785958E-14
 -0.679000020      -4.06384317E-14
 -0.667999983       1.96314946E-14
 -0.657000005       3.58868717E-14
 -0.646000028      -5.98947907E-14
 -0.634999990       7.13986094E-14
 -0.624000013       4.26391066E-14
 -0.612999976      -2.74215627E-13
 -0.601999998      -1.48799227E-14
 -0.591000021       4.36519256E-13
 -0.579999983       1.99690945E-13
 -0.569000006      -1.25353948E-12
 -0.558000028       1.90187736E-13
 -0.546999991       1.88999966E-12
 -0.536000013      -1.14775463E-12
 -0.524999976      -3.38524478E-12
 -0.513999999       2.63599537E-12
 -0.503000021       7.09271877E-12
 -0.492000014      -5.73627257E-12
 -0.481000006      -1.16189671E-11
 -0.469999999       9.32320627E-12
 -0.458999991       1.21473907E-11
 -0.448000014      -1.33257806E-11
 -0.437000006      -3.39524936E-12
 -0.425999999       2.52934826E-11
 -0.414999992       3.85364310E-12
 -0.404000014      -3.98655588E-11
 -0.393000007      -2.51014296E-11
 -0.381999999       1.83441803E-11
 -0.370999992       4.54643927E-11
 -0.360000014       5.10734927E-11
 -0.349000007      -5.36898963E-11
 -0.338000000      -4.89130680E-11
 -0.326999992       1.54073282E-10
 -0.316000015      -1.35588971E-11
 -0.305000007      -4.38556164E-10
 -0.294000000       1.50053722E-12
 -0.282999992       7.99051381E-10
 -0.272000015      -5.42474607E-11
 -0.261000007      -1.07494569E-09
 -0.250000000       4.97981711E-10
 -0.238999993       1.31277045E-09
 -0.228000000      -1.16850640E-09
 -0.216999993      -1.01992215E-09
 -0.206000000       1.71210823E-09
 -0.194999993      -1.08662225E-10
 -0.184000000      -2.63622657E-09
 -0.172999993       1.61835512E-09
 -0.162000000       3.15933590E-09
 -0.150999993      -3.12870352E-09
 -0.140000001      -2.69477640E-09
 -0.128999993       4.57203342E-09
 -0.118000001       1.32234323E-09
 -0.107000001      -4.65516070E-09
  -9.60000008E-02   5.03689257E-10
  -8.50000009E-02   2.32793296E-09
  -7.40000010E-02  -2.21357599E-09
  -6.30000010E-02   2.14334528E-09
  -5.20000011E-02   5.20524646E-09
  -4.10000011E-02  -1.67418723E-09
  -2.99999993E-02  -5.16792520E-09
  -1.89999994E-02   5.76846793E-10
  -8.00000038E-03   3.36127970E-09
   3.00000003E-03   2.04861439E-09
   1.40000004E-02  -1.40005296E-09
   2.50000004E-02  -3.40568307E-09
   3.59999985E-02   5.53323298E-09
   4.69999984E-02   6.09818152E-09
   5.79999983E-02  -1.26748478E-08
   6.89999983E-02  -9.16518239E-09
   7.99999982E-02   3.69093156E-09
   9.09999982E-02  -3.36161676E-09
  0.101999998       7.06924741E-09
  0.112999998       1.82432700E-08
  0.123999998      -1.49452788E-08
  0.135000005      -2.88363111E-08
  0.145999998       1.75898105E-08
  0.157000005       2.33834943E-08
  0.167999998      -9.20274523E-09
  0.179000005      -1.11940404E-08
  0.189999998      -9.40654932E-09
  0.201000005       5.52935209E-09
  0.211999997       4.74668234E-08
  0.223000005       2.53483012E-08
  0.233999997      -2.22516690E-08
  0.245000005      -9.16367338E-09
  0.256000012      -1.34638265E-08
  0.266999990      -4.03086489E-08
  0.277999997       6.18087199E-08
  0.289000005       5.57345210E-08
  0.300000012      -1.04986135E-07
  0.310999990      -5.65383793E-08
  0.321999997       1.03498778E-07
  0.333000004       3.51954981E-08
  0.344000012      -6.35890274E-08
  0.354999989      -5.92513416E-08
  0.365999997      -6.80190411E-08
  0.377000004      -2.05259667E-08
  0.388000011       1.32332630E-07
  0.398999989       5.98961307E-08
  0.409999996      -1.14941457E-07
  0.421000004       3.67247921E-08
  0.432000011       5.93653660E-08
  0.442999989      -2.06181497E-07
  0.453999996      -6.95105271E-08
  0.465000004       1.34060002E-07
  0.476000011      -9.02633843E-08
  0.486999989      -2.10768292E-08
  0.497999996       2.73092127E-07
  0.509000003      -1.83072437E-08
  0.519999981      -2.21968932E-07
  0.531000018       1.29333515E-07
  0.541999996       1.08292140E-08
  0.552999973      -3.46016179E-07
  0.564000010       8.19047443E-08
  0.574999988       3.79847336E-07
  0.586000025       7.51398144E-09
  0.597000003      -2.28541452E-08
  0.607999980       1.00154004E-07
  0.619000018      -1.90496522E-07
  0.629999995      -1.86147759E-07
  0.640999973       1.95800894E-07
  0.652000010       1.27020058E-07
  0.662999988      -4.70127448E-09
  0.674000025       3.67971573E-08
  0.685000002      -1.96326852E-07
  0.695999980      -8.35168592E-08
  0.707000017       2.41812188E-07
  0.717999995      -7.35611039E-08
  0.728999972      -2.52838731E-07
  0.740000010       2.50498800E-07
  0.750999987       2.27542415E-07
  0.762000024      -2.85284472E-07
  0.773000002      -1.10516844E-07
  0.783999979       2.27627680E-07
  0.795000017       2.15831033E-08
  0.805999994      -7.90252912E-08
  0.816999972       1.02169039E-07
  0.828000009       1.10549252E-07
  0.838999987      -5.78350274E-08
  0.850000024      -1.43579243E-07
  0.861000001      -3.60763508E-08
  0.871999979       1.12718141E-07
  0.883000016      -1.35801997E-07
  0.893999994      -3.42642977E-07
  0.904999971       5.98430958E-08
  0.916000009       2.92915388E-07
  0.926999986      -5.19083265E-08
  0.938000023      -5.44286785E-08
  0.949000001       1.33483709E-07
  0.959999979      -1.60239736E-07
  0.971000016      -2.39067703E-07
  0.981999993       1.51450934E-07
  0.992999971       2.56158103E-07
   1.00399995       1.30043873E-07
   1.01499999       3.18709965E-08
   1.02600002      -2.35434513E-07
   1.03699994      -2.28735857E-07
   1.04799998       1.25206839E-07
   1.05900002       5.44202550E-08
   1.07000005      -6.55892620E-08
   1.08099997       2.14703334E-07
   1.09200001      -4.39010854E-08
   1.10300004      -5.02342914E-07
   1.11399996       4.35672582E-08
   1.12500000       4.68918756E-07
   1.13600004      -1.25069519E-07
   1.14699996      -2.18636245E-07
   1.15799999       3.13150508E-07
   1.16900003       2.76720638E-08
   1.17999995      -3.83342467E-07
   1.19099998       8.18155286E-08
   1.20200002       3.01432664E-07
   1.21300006      -1.60380225E-07
   1.22399998      -2.16789985E-07
   1.23500001       1.74978865E-07
   1.24600005       2.36442062E-07
   1.25699997      -1.44442485E-08
   1.26800001      -1.57049172E-07
   1.27900004      -7.67943931E-08
   1.28999996       1.42574974E-08
   1.30100000      -3.86310646E-08
   1.31200004       3.15832160E-08
   1.32299995       2.36411353E-07
   1.33399999       8.56916813E-08
   1.34500003      -2.63483685E-07
   1.35599995      -2.26209053E-07
   1.36699998      -1.07765237E-08
   1.37800002       3.35435608E-08
   1.38900006       1.03256347E-07
