 -0.959999979       0.00000000
 -0.925000012       0.00000000
 -0.889999986       2.36111131E-12
 -0.855000019      -4.16666658E-12
 -0.819999993       6.02777828E-11
 -0.785000026       7.13889017E-11
 -0.750000000      -8.86111046E-11
 -0.714999974       1.71583336E-09
 -0.680000007       8.09166734E-10
 -0.644999981      -6.62194433E-09
 -0.610000014       1.98250039E-09
 -0.574999988       1.23647226E-08
 -0.540000021      -2.11997246E-08
 -0.504999995      -2.23375043E-08
 -0.469999999       2.69360823E-09
 -0.435000002      -1.66486149E-08
 -0.400000006      -1.83901946E-07
 -0.365000010       2.62106965E-07
 -0.330000013      -1.93004155E-07
 -0.294999987      -7.69507835E-08
 -0.259999990       7.62729201E-07
 -0.224999994      -5.47990851E-07
 -0.189999998      -4.87688624E-07
 -0.155000001       6.21644745E-07
 -0.119999997      -2.80263954E-08
  -8.50000009E-02  -3.59908334E-08
  -5.00000007E-02  -4.96441679E-08
  -1.49999997E-02  -3.36364195E-07
   1.99999996E-02   7.14942473E-07
   5.49999997E-02   3.41751331E-07
   9.00000036E-02  -1.69259545E-06
  0.125000000      -9.64417495E-07
  0.159999996       2.32148477E-06
  0.194999993       9.56151553E-07
  0.230000004      -1.93835513E-06
  0.264999986       4.59293439E-08
  0.300000012       7.83209373E-07
  0.335000008      -7.90337367E-07
  0.370000005      -2.43066239E-07
  0.405000001      -6.61768524E-07
  0.439999998      -4.28174829E-08
  0.474999994       2.79707592E-06
  0.509999990       1.75635947E-07
  0.545000017      -3.68370638E-06
  0.579999983      -7.52790697E-07
  0.615000010       2.30100500E-06
  0.649999976       1.29520936E-06
  0.685000002       9.37159612E-08
  0.720000029      -5.25235180E-07
  0.754999995       9.31120439E-07
  0.790000021       1.14957379E-06
  0.824999988      -1.25341307E-06
  0.860000014       3.03066997E-07
  0.894999981       3.25822413E-07
  0.930000007      -3.61999128E-06
  0.964999974      -8.62017998E-07
   1.00000000       4.41727116E-06
   1.03499997       7.03564581E-07
   1.07000005      -3.41974192E-06
   1.10500002      -7.48239472E-07
   1.13999999       6.92187314E-07
   1.17499995       5.98889528E-07
   1.21000004       8.17342880E-07
   1.24500000      -5.29786064E-07
   1.27999997       4.39600626E-07
   1.31500006       1.93008941E-06
   1.35000002      -1.16409740E-06
   1.38499999      -1.65049744E-06
   1.41999996       1.67181372E-06
   1.45500004      -9.62931068E-08
   1.49000001      -2.23759093E-06
   1.52499998       1.05286256E-06
   1.55999994       1.22125380E-06
   1.59500003      -2.20118181E-06
   1.63000000      -8.72257431E-07
