 -0.959999979       0.00000000
 -0.925000012       2.47613790E-21
 -0.889999986      -5.24689312E-06
 -0.855000019      -7.35618378E-05
 -0.819999993      -3.33958669E-05
 -0.785000026       1.03688064E-04
 -0.750000000      -1.86826190E-04
 -0.714999974      -7.34240864E-04
 -0.680000007      -7.09927990E-04
 -0.644999981      -5.85534086E-04
 -0.610000014      -1.46004744E-03
 -0.574999988      -2.86701531E-03
 -0.540000021      -3.91813647E-03
 -0.504999995      -4.67133522E-03
 -0.469999999      -4.74725664E-03
 -0.435000002      -3.69397807E-03
 -0.400000006      -2.45504943E-03
 -0.365000010      -1.49707845E-03
 -0.330000013      -6.43432955E-04
 -0.294999987      -3.64588411E-03
 -0.259999990      -1.89707391E-02
 -0.224999994      -5.60134538E-02
 -0.189999998     -0.125701457
 -0.155000001     -0.242210925
 -0.119999997     -0.417121500
  -8.50000009E-02 -0.650356233
  -5.00000007E-02 -0.921676874
  -1.49999997E-02  -1.17847979
   1.99999996E-02  -1.32691085
   5.49999997E-02  -1.24046218
   9.00000036E-02 -0.787537754
  0.125000000      0.123355046
  0.159999996       1.48362374
  0.194999993       3.13663101
  0.230000004       4.77845621
  0.264999986       6.01411295
  0.300000012       6.45528746
  0.335000008       5.84008932
  0.370000005       4.12878895
  0.405000001       1.52268767
  0.439999998      -1.59619582
  0.474999994      -4.76361036
  0.509999990      -7.53352070
  0.545000017      -9.54905987
  0.579999983      -10.5610714
  0.615000010      -10.4155302
  0.649999976      -9.05497360
  0.685000002      -6.54530287
  0.720000029      -3.10912776
  0.754999995      0.855211735
  0.790000021       4.79986238
  0.824999988       8.12204361
  0.860000014       10.3023386
  0.894999981       11.0316696
  0.930000007       10.2842693
  0.964999974       8.31007290
   1.00000000       5.54343557
   1.03499997       2.47010612
   1.07000005     -0.484325320
   1.10500002      -3.00894642
   1.13999999      -4.90288258
   1.17499995      -6.03635550
   1.21000004      -6.32638884
   1.24500000      -5.76187181
   1.27999997      -4.45866442
   1.31500006      -2.68905187
   1.35000002     -0.841869116
   1.38499999      0.691334724
   1.41999996       1.65765750
   1.45500004       2.02933216
   1.49000001       1.97529399
   1.52499998       1.73339808
   1.55999994       1.46544588
   1.59500003       1.18722832
   1.63000000      0.816179216
