 -0.959999979       0.00000000
 -0.925000012       0.00000000
 -0.889999986      -1.09310641E-07
 -0.855000019      -1.50195694E-06
 -0.819999993      -4.31901117E-06
 -0.785000026      -8.17968066E-06
 -0.750000000      -1.73402423E-05
 -0.714999974      -4.01346733E-05
 -0.680000007      -8.54633327E-05
 -0.644999981      -1.68707687E-04
 -0.610000014      -3.19932034E-04
 -0.574999988      -5.83029119E-04
 -0.540000021      -1.01184484E-03
 -0.504999995      -1.66479382E-03
 -0.469999999      -2.58833054E-03
 -0.435000002      -3.79076437E-03
 -0.400000006      -5.21322945E-03
 -0.365000010      -6.70006359E-03
 -0.330000013      -7.98901636E-03
 -0.294999987      -8.76130257E-03
 -0.259999990      -8.77473410E-03
 -0.224999994      -8.07170011E-03
 -0.189999998      -7.22347246E-03
 -0.155000001      -7.52115762E-03
 -0.119999997      -1.09702470E-02
  -8.50000009E-02  -1.99474934E-02
  -5.00000007E-02  -3.64531577E-02
  -1.49999997E-02  -6.10293187E-02
   1.99999996E-02  -9.16092694E-02
   5.49999997E-02 -0.122750863
   9.00000036E-02 -0.145763353
  0.125000000     -0.150088429
  0.159999996     -0.125933021
  0.194999993      -6.76359907E-02
  0.230000004       2.32432466E-02
  0.264999986      0.136330575
  0.300000012      0.253294945
  0.335000008      0.351405114
  0.370000005      0.409056872
  0.405000001      0.411665082
  0.439999998      0.355979681
  0.474999994      0.251305789
  0.509999990      0.117143795
  0.545000017      -2.19878275E-02
  0.579999983     -0.142819270
  0.615000010     -0.228684798
  0.649999976     -0.272460729
  0.685000002     -0.276542515
  0.720000029     -0.250318080
  0.754999995     -0.206296280
  0.790000021     -0.156268716
  0.824999988     -0.108632825
  0.860000014      -6.74629882E-02
  0.894999981      -3.32787484E-02
  0.930000007      -4.87994310E-03
  0.964999974       1.87213011E-02
   1.00000000       3.71883400E-02
   1.03499997       4.90321331E-02
   1.07000005       5.28537370E-02
   1.10500002       4.88425083E-02
   1.13999999       3.95334288E-02
   1.17499995       2.92199925E-02
   1.21000004       2.21968144E-02
   1.24500000       2.07303949E-02
   1.27999997       2.38992870E-02
   1.31500006       2.80296337E-02
   1.35000002       2.85832062E-02
   1.38499999       2.25344226E-02
   1.41999996       9.98750050E-03
   1.45500004      -5.80039620E-03
   1.49000001      -1.99565198E-02
   1.52499998      -2.82377172E-02
   1.55999994      -2.88169291E-02
   1.59500003      -2.27829851E-02
   1.63000000      -1.32756997E-02
