 -0.800000012       0.00000000
 -0.788999975       0.00000000
 -0.777999997       0.00000000
 -0.767000020       2.26353668E-26
 -0.755999982      -3.66216941E-25
 -0.745000005      -2.26244651E-17
 -0.734000027      -1.66583283E-16
 -0.722999990       5.10380496E-16
 -0.712000012       5.77177197E-16
 -0.700999975      -6.57495985E-15
 -0.689999998       8.25050664E-15
 -0.679000020       3.10270100E-14
 -0.667999983      -1.28630193E-13
 -0.657000005      -2.19879826E-14
 -0.646000028       4.53777261E-13
 -0.634999990      -2.32195068E-13
 -0.624000013      -8.44673669E-13
 -0.612999976       8.26163411E-13
 -0.601999998       5.87254312E-13
 -0.591000021      -1.35107897E-12
 -0.579999983       1.73488979E-12
 -0.569000006       3.07704681E-13
 -0.558000028      -6.56890558E-12
 -0.546999991       5.93536331E-12
 -0.536000013       1.29559063E-11
 -0.524999976      -1.95513380E-11
 -0.513999999      -1.65704429E-11
 -0.503000021       3.74092389E-11
 -0.492000014       1.38246975E-11
 -0.481000006      -5.01455683E-11
 -0.469999999      -1.90589020E-11
 -0.458999991       4.63556971E-11
 -0.448000014       7.66718217E-11
 -0.437000006      -3.34481436E-11
 -0.425999999      -2.60656358E-10
 -0.414999992       3.21892235E-11
 -0.404000014       6.33186281E-10
 -0.393000007      -4.48410233E-11
 -0.381999999      -1.15994814E-09
 -0.370999992      -5.22332143E-11
 -0.360000014       1.59295033E-09
 -0.349000007       5.20409105E-10
 -0.338000000      -1.58840563E-09
 -0.326999992      -1.57117086E-09
 -0.316000015       1.09114551E-09
 -0.305000007       3.02042769E-09
 -0.294000000      -5.55949176E-10
 -0.282999992      -3.96654354E-09
 -0.272000015       6.90396240E-10
 -0.261000007       2.82854096E-09
 -0.250000000      -2.59115374E-09
 -0.238999993       1.60310032E-09
 -0.228000000       8.59397442E-09
 -0.216999993      -7.05646341E-09
 -0.206000000      -2.02719690E-08
 -0.194999993       9.15660436E-09
 -0.184000000       3.66635966E-08
 -0.172999993      -8.78535644E-09
 -0.162000000      -5.98396781E-08
 -0.150999993       1.02615259E-08
 -0.140000001       9.63768514E-08
 -0.128999993      -1.18140653E-08
 -0.118000001      -1.34998743E-07
 -0.107000001       2.29260593E-08
  -9.60000008E-02   1.56279583E-07
  -8.50000009E-02  -7.17309590E-08
  -7.40000010E-02  -1.75121642E-07
  -6.30000010E-02   1.43183527E-07
  -5.20000011E-02   2.16727472E-07
  -4.10000011E-02  -1.59392414E-07
  -2.99999993E-02  -2.46387799E-07
  -1.89999994E-02   9.41713267E-08
  -8.00000038E-03   2.58224702E-07
   3.00000003E-03   3.47761855E-08
   1.40000004E-02  -2.22662720E-07
   2.50000004E-02  -8.37112353E-08
   3.59999985E-02   2.40546257E-07
   4.69999984E-02   1.96988239E-08
   5.79999983E-02  -3.39285293E-07
   6.89999983E-02   6.10469897E-08
   7.99999982E-02   2.62010303E-07
   9.09999982E-02  -2.36350502E-07
  0.101999998       2.67264744E-09
  0.112999998       5.18052900E-07
  0.123999998      -2.22612300E-07
  0.135000005      -7.03619321E-07
  0.145999998       3.07582781E-07
  0.157000005       7.20612206E-07
  0.167999998      -7.66541390E-08
  0.179000005      -2.02541372E-07
  0.189999998       1.41917070E-07
  0.201000005      -2.81424406E-07
  0.211999997      -4.93215737E-07
  0.223000005       1.68639772E-07
  0.233999997       4.71064482E-07
  0.245000005       5.62341853E-08
  0.256000012      -3.74224186E-07
  0.266999990      -3.87926207E-07
  0.277999997       4.68788443E-07
  0.289000005       1.26405052E-06
  0.300000012       2.07802927E-07
  0.310999990      -1.38697703E-06
  0.321999997      -1.25622205E-06
  0.333000004      -1.81120868E-07
  0.344000012       1.08113238E-06
  0.354999989       2.05788706E-06
  0.365999997       2.25870025E-07
  0.377000004      -2.34102117E-06
  0.388000011      -6.97704792E-08
  0.398999989       1.62293884E-06
  0.409999996      -1.44057003E-06
  0.421000004      -1.19045990E-06
  0.432000011       2.30129876E-06
  0.442999989       1.60371542E-06
  0.453999996      -2.29679495E-06
  0.465000004      -3.37075994E-06
  0.476000011      -1.57323097E-06
  0.486999989       2.53196527E-06
  0.497999996       5.32649256E-06
  0.509000003      -3.05051742E-07
  0.519999981      -4.13619955E-06
  0.531000018       5.48932746E-07
  0.541999996       2.14132655E-07
  0.552999973      -4.53590019E-06
  0.564000010       1.80180996E-06
  0.574999988       8.35588526E-06
  0.586000025      -1.14125999E-06
  0.597000003      -6.39288510E-06
  0.607999980      -3.58504195E-07
  0.619000018       5.18242246E-07
  0.629999995       1.66163147E-06
  0.640999973       5.14028989E-06
  0.652000010      -2.75018215E-06
  0.662999988      -7.36258698E-06
  0.674000025       1.66072437E-06
  0.685000002       1.87185503E-06
  0.695999980      -4.52345489E-07
  0.707000017       6.38584515E-06
  0.717999995       3.70290900E-06
  0.728999972      -7.60301646E-06
  0.740000010      -3.58528359E-06
  0.750999987       6.01671582E-06
  0.762000024       1.86458180E-06
  0.773000002      -2.23084567E-06
  0.783999979      -8.43764170E-08
  0.795000017      -5.51053347E-07
  0.805999994      -6.07836171E-07
  0.816999972       1.03334116E-06
  0.828000009      -9.27375993E-07
  0.838999987      -6.40275459E-07
  0.850000024      -6.12434462E-07
  0.861000001      -5.85027419E-06
  0.871999979      -2.96662233E-06
  0.883000016       4.74785747E-06
  0.893999994       2.04473645E-06
  0.904999971      -1.08910808E-06
  0.916000009       6.49027925E-06
  0.926999986       8.45298837E-06
  0.938000023      -3.90127843E-06
  0.949000001      -8.83287066E-06
  0.959999979       1.31769684E-06
  0.971000016       4.42942383E-06
  0.981999993      -4.35564198E-06
  0.992999971      -5.77487663E-06
   1.00399995       4.66678921E-06
   1.01499999       5.55914585E-06
   1.02600002      -5.54705093E-06
   1.03699994      -2.12854980E-06
   1.04799998       8.98029248E-06
   1.05900002      -1.89128184E-06
   1.07000005      -1.47154851E-05
   1.08099997       2.46562104E-06
   1.09200001       1.49420857E-05
   1.10300004      -3.57433805E-06
   1.11399996      -8.92789376E-06
   1.12500000       9.12526502E-06
   1.13600004       5.87436261E-06
   1.14699996      -1.12956832E-05
   1.15799999      -4.82767882E-06
   1.16900003       5.73802163E-06
   1.17999995      -1.64290111E-06
   1.19099998      -4.14237866E-06
   1.20200002       4.63481274E-06
   1.21300006       5.97993630E-06
   1.22399998      -6.71847715E-07
   1.23500001      -2.42431020E-06
   1.24600005       1.20058928E-06
   1.25699997       1.88972035E-06
   1.26800001      -1.55606392E-06
   1.27900004      -2.76630431E-06
   1.28999996      -1.06589562E-06
   1.30100000      -1.88975037E-06
   1.31200004      -4.61896235E-07
   1.32299995       5.70994007E-06
   1.33399999       2.70379383E-06
   1.34500003      -8.48944455E-06
   1.35599995      -5.48461048E-06
   1.36699998       8.99833958E-06
   1.37800002       8.84592009E-06
   1.38900006      -2.59396711E-06
