 -0.800000012       0.00000000
 -0.788999975       0.00000000
 -0.777999997       0.00000000
 -0.767000020      -1.70940889E-26
 -0.755999982      -4.08821455E-19
 -0.745000005       1.67872004E-18
 -0.734000027       1.48330914E-16
 -0.722999990       1.66650834E-16
 -0.712000012       3.88270083E-16
 -0.700999975       6.09220242E-16
 -0.689999998      -2.13626495E-15
 -0.679000020       1.18168567E-14
 -0.667999983      -2.36763937E-14
 -0.657000005      -3.07297421E-14
 -0.646000028       1.71022078E-13
 -0.634999990      -1.46567383E-13
 -0.624000013      -2.74221563E-13
 -0.612999976       9.34487730E-13
 -0.601999998      -8.44128641E-13
 -0.591000021      -2.12574099E-12
 -0.579999983       6.39107213E-12
 -0.569000006       1.66313979E-12
 -0.558000028      -1.99418659E-11
 -0.546999991       4.94696731E-12
 -0.536000013       4.23975542E-11
 -0.524999976      -2.19842651E-11
 -0.513999999      -6.89654722E-11
 -0.503000021       5.29306390E-11
 -0.492000014       9.76202244E-11
 -0.481000006      -9.60609231E-11
 -0.469999999      -1.53771690E-10
 -0.458999991       1.37752171E-10
 -0.448000014       3.05075076E-10
 -0.437000006      -1.86507670E-10
 -0.425999999      -6.15623441E-10
 -0.414999992       2.99062330E-10
 -0.404000014       1.04005227E-09
 -0.393000007      -5.09412290E-10
 -0.381999999      -1.33218458E-09
 -0.370999992       7.47076456E-10
 -0.360000014       1.18669918E-09
 -0.349000007      -6.96422198E-10
 -0.338000000      -5.29649491E-10
 -0.326999992      -8.39652167E-11
 -0.316000015      -8.56944585E-11
 -0.305000007       1.41688095E-09
 -0.294000000      -6.33410047E-10
 -0.282999992      -1.71108805E-09
 -0.272000015       3.95751476E-09
 -0.261000007      -9.90921678E-10
 -0.250000000      -8.75626061E-09
 -0.238999993       7.12062809E-09
 -0.228000000       1.07253673E-08
 -0.216999993      -1.40627288E-08
 -0.206000000      -5.64273872E-09
 -0.194999993       1.76502990E-08
 -0.184000000      -4.22599689E-09
 -0.172999993      -1.29463622E-08
 -0.162000000       1.24490045E-08
 -0.150999993       1.37529099E-09
 -0.140000001      -1.63045559E-08
 -0.128999993       4.50020066E-09
 -0.118000001       2.04747632E-08
 -0.107000001       1.35165115E-08
  -9.60000008E-02  -2.87836386E-08
  -8.50000009E-02  -5.21580041E-08
  -7.40000010E-02   5.91911302E-08
  -6.30000010E-02   1.00494745E-07
  -5.20000011E-02  -1.25264975E-07
  -4.10000011E-02  -1.65408295E-07
  -2.99999993E-02   1.89681472E-07
  -1.89999994E-02   2.43930600E-07
  -8.00000038E-03  -1.68048757E-07
   3.00000003E-03  -2.69102060E-07
   1.40000004E-02   5.01861486E-08
   2.50000004E-02   1.86683039E-07
   3.59999985E-02   9.72843495E-08
   4.69999984E-02   6.52597976E-08
   5.79999983E-02   2.37256277E-08
   6.89999983E-02  -2.20886960E-07
   7.99999982E-02  -4.68479840E-07
   9.09999982E-02  -1.13784068E-07
  0.101999998       6.62706611E-07
  0.112999998       5.00863564E-07
  0.123999998      -5.85762393E-07
  0.135000005      -5.44874183E-07
  0.145999998       4.72874007E-07
  0.157000005       5.15200668E-07
  0.167999998      -3.79368146E-08
  0.179000005      -1.47712797E-07
  0.189999998      -3.08905783E-07
  0.201000005      -5.99168686E-07
  0.211999997      -2.13963233E-07
  0.223000005       5.13761734E-07
  0.233999997       7.40048677E-07
  0.245000005       2.12119645E-07
  0.256000012      -6.59937427E-07
  0.266999990      -5.63739320E-07
  0.277999997       7.67174299E-07
  0.289000005       5.50155448E-07
  0.300000012      -1.20286722E-06
  0.310999990      -3.45089973E-07
  0.321999997       1.29828049E-06
  0.333000004      -4.24744826E-07
  0.344000012      -1.24461371E-06
  0.354999989       1.67545102E-06
  0.365999997       1.62116646E-06
  0.377000004      -1.85058866E-06
  0.388000011      -4.83027634E-07
  0.398999989       1.46523985E-06
  0.409999996      -2.42550368E-06
  0.421000004      -1.84010105E-06
  0.432000011       4.16758985E-06
  0.442999989       1.06610730E-06
  0.453999996      -4.41117663E-06
  0.465000004       2.12937903E-06
  0.476000011       5.48218259E-06
  0.486999989      -2.81769258E-06
  0.497999996      -5.09881102E-06
  0.509000003       3.54412350E-07
  0.519999981       3.94934432E-07
  0.531000018       5.97713324E-07
  0.541999996       4.00769250E-06
  0.552999973      -6.91815671E-07
  0.564000010      -4.35468291E-06
  0.574999988       5.79166908E-07
  0.586000025       1.65573260E-06
  0.597000003       3.01369994E-07
  0.607999980       2.69644079E-06
  0.619000018      -4.81699544E-07
  0.629999995      -5.22056234E-06
  0.640999973       1.05735649E-06
  0.652000010       4.21951336E-06
  0.662999988      -3.01088767E-06
  0.674000025      -1.92119023E-06
  0.685000002       1.73384467E-06
  0.695999980      -4.88647083E-06
  0.707000017      -1.43366526E-06
  0.717999995       1.11982890E-05
  0.728999972       4.92056279E-06
  0.740000010      -9.31410068E-06
  0.750999987      -2.72499960E-06
  0.762000024       7.40120822E-06
  0.773000002       1.44220337E-07
  0.783999979      -3.39145413E-06
  0.795000017       2.84037014E-06
  0.805999994       1.18698480E-07
  0.816999972      -6.63705805E-06
  0.828000009      -2.60015509E-06
  0.838999987       4.84890552E-06
  0.850000024       2.75329626E-06
  0.861000001      -4.01435045E-06
  0.871999979      -3.03953652E-06
  0.883000016       4.11769088E-06
  0.893999994       4.44397256E-06
  0.904999971      -2.67388077E-06
  0.916000009      -5.02149942E-06
  0.926999986      -1.42856345E-06
  0.938000023       7.83625978E-07
  0.949000001       2.72940406E-06
  0.959999979       4.20780998E-06
  0.971000016       1.41138662E-06
  0.981999993       4.56497276E-07
  0.992999971      -7.33659022E-07
   1.00399995      -7.60217563E-06
   1.01499999      -3.33554135E-06
   1.02600002       1.14629256E-05
   1.03699994       5.69424810E-06
   1.04799998      -1.14406448E-05
   1.05900002      -5.47948184E-06
   1.07000005       6.16956140E-06
   1.08099997      -8.31054706E-07
   1.09200001      -1.14296404E-06
   1.10300004       9.59616045E-06
   1.11399996       1.09761538E-06
   1.12500000      -1.17495501E-05
   1.13600004      -3.18726256E-06
   1.14699996       4.83906069E-06
   1.15799999       3.38636738E-07
   1.16900003       2.24867017E-06
   1.17999995       4.40033864E-06
   1.19099998      -2.81682105E-06
   1.20200002      -3.90798050E-06
   1.21300006      -1.13589851E-06
   1.22399998      -2.04545540E-06
   1.23500001       2.83576765E-06
   1.24600005       7.80420669E-06
   1.25699997       1.96878386E-06
   1.26800001      -4.53867096E-06
   1.27900004      -4.54443261E-06
   1.28999996      -2.71479348E-06
   1.30100000       8.02223610E-07
   1.31200004       1.83433815E-06
   1.32299995      -1.62573212E-06
   1.33399999       2.21575647E-06
   1.34500003       6.96428378E-06
   1.35599995      -3.72002523E-06
   1.36699998      -1.07376500E-05
   1.37800002       9.81747689E-07
   1.38900006       5.94211406E-06
