 -0.800000012       0.00000000
 -0.788999975       0.00000000
 -0.777999997       9.96331718E-25
 -0.767000020       1.72727448E-16
 -0.755999982       2.05753461E-16
 -0.745000005       1.32116252E-14
 -0.734000027       6.81726717E-15
 -0.722999990      -3.68051198E-14
 -0.712000012       4.93364589E-15
 -0.700999975       1.79316956E-13
 -0.689999998      -1.46936757E-13
 -0.679000020      -1.30008309E-13
 -0.667999983       8.77160269E-13
 -0.657000005       9.10524477E-13
 -0.646000028      -1.30424176E-12
 -0.634999990      -8.69846784E-13
 -0.624000013       2.33348714E-12
 -0.612999976       3.04632459E-13
 -0.601999998      -2.16365315E-12
 -0.591000021      -6.05347369E-13
 -0.579999983       5.67883848E-13
 -0.569000006       2.02223654E-12
 -0.558000028      -2.03093055E-12
 -0.546999991      -7.92053229E-12
 -0.536000013       2.46453053E-12
 -0.524999976       7.48525634E-12
 -0.513999999      -8.33501410E-12
 -0.503000021       1.73579554E-11
 -0.492000014       4.55081875E-11
 -0.481000006      -3.47767128E-11
 -0.469999999      -8.53644586E-11
 -0.458999991       2.66024321E-11
 -0.448000014       7.71352149E-11
 -0.437000006      -6.49553120E-11
 -0.425999999       2.79549691E-12
 -0.414999992       3.12157716E-10
 -0.404000014      -4.00161154E-11
 -0.393000007      -7.95022159E-10
 -0.381999999      -1.64946820E-10
 -0.370999992       1.10709186E-09
 -0.360000014       2.82689483E-10
 -0.349000007      -4.21238766E-10
 -0.338000000       5.36370615E-10
 -0.326999992      -1.29943778E-09
 -0.316000015      -1.89486404E-09
 -0.305000007       3.70286446E-09
 -0.294000000       1.54920887E-09
 -0.282999992      -6.63732846E-09
 -0.272000015       1.08516218E-09
 -0.261000007       6.40883746E-09
 -0.250000000      -5.34734168E-09
 -0.238999993      -6.45663967E-10
 -0.228000000       9.98899186E-09
 -0.216999993      -3.17422244E-09
 -0.206000000      -1.25014079E-08
 -0.194999993      -2.64371525E-09
 -0.184000000       9.20483334E-09
 -0.172999993       9.24449761E-09
 -0.162000000       1.89866043E-08
 -0.150999993      -1.31755706E-09
 -0.140000001      -5.64640672E-08
 -0.128999993      -5.64043168E-09
 -0.118000001       5.27628998E-08
 -0.107000001      -1.08941025E-08
  -9.60000008E-02  -6.31999413E-08
  -8.50000009E-02   4.17100061E-08
  -7.40000010E-02   1.28119552E-07
  -6.30000010E-02  -5.52027331E-08
  -5.20000011E-02  -1.75897938E-07
  -4.10000011E-02   8.01910360E-08
  -2.99999993E-02   2.37597860E-07
  -1.89999994E-02  -1.74833161E-07
  -8.00000038E-03  -4.17602877E-07
   3.00000003E-03   2.25973039E-07
   1.40000004E-02   5.71356793E-07
   2.50000004E-02  -9.49884154E-08
   3.59999985E-02  -4.04359099E-07
   4.69999984E-02   1.15444827E-07
   5.79999983E-02   3.88032021E-07
   6.89999983E-02  -5.83866537E-08
   7.99999982E-02  -5.47366028E-07
   9.09999982E-02  -6.79314596E-08
  0.101999998       6.58968361E-07
  0.112999998       1.30843262E-07
  0.123999998      -4.47418330E-07
  0.135000005      -1.03902401E-07
  0.145999998      -2.59927546E-08
  0.157000005      -2.40343724E-07
  0.167999998       5.98502439E-08
  0.179000005      -2.24063683E-07
  0.189999998      -3.83357133E-07
  0.201000005       8.30789531E-07
  0.211999997       7.57882333E-07
  0.223000005      -5.94469157E-07
  0.233999997       1.57631789E-07
  0.245000005       7.57526493E-07
  0.256000012      -1.35001812E-06
  0.266999990      -1.52735390E-06
  0.277999997       7.94669290E-07
  0.289000005       6.47735078E-07
  0.300000012      -3.97697903E-07
  0.310999990       9.42707402E-07
  0.321999997       1.47739775E-06
  0.333000004      -5.90282127E-07
  0.344000012      -2.06332288E-06
  0.354999989      -2.03586660E-06
  0.365999997       4.64095052E-07
  0.377000004       3.97543545E-06
  0.388000011       1.86517218E-06
  0.398999989      -2.94045867E-06
  0.409999996      -1.62918445E-06
  0.421000004       1.77071820E-06
  0.432000011       3.16966464E-07
  0.442999989      -3.27353007E-07
  0.453999996       2.24152518E-06
  0.465000004       3.36303486E-07
  0.476000011      -4.88416117E-06
  0.486999989      -3.20210529E-06
  0.497999996       3.60331137E-06
  0.509000003       4.05210722E-06
  0.519999981      -1.06553989E-06
  0.531000018      -2.15171599E-06
  0.541999996       1.26525879E-06
  0.552999973       1.64984885E-06
  0.564000010      -9.81811354E-07
  0.574999988      -2.25607641E-06
  0.586000025      -4.96068935E-07
  0.597000003       1.75772573E-06
  0.607999980       1.35024857E-06
  0.619000018      -1.26340558E-06
  0.629999995      -2.31799663E-06
  0.640999973       2.76698734E-06
  0.652000010       3.99916780E-06
  0.662999988      -4.53579742E-06
  0.674000025      -6.92997401E-06
  0.685000002       2.55604363E-07
  0.695999980       2.99878047E-06
  0.707000017       1.12318082E-06
  0.717999995       2.38979965E-06
  0.728999972       3.04673335E-06
  0.740000010       9.83958330E-07
  0.750999987      -1.19519456E-07
  0.762000024      -1.98136286E-06
  0.773000002      -2.77081767E-06
  0.783999979       4.80629467E-07
  0.795000017       2.51403435E-06
  0.805999994      -4.67782293E-08
  0.816999972      -2.51980077E-06
  0.828000009      -2.11969063E-06
  0.838999987      -7.97389418E-07
  0.850000024      -3.44519151E-08
  0.861000001       8.04111551E-08
  0.871999979       8.56748670E-07
  0.883000016       2.66562984E-06
  0.893999994       2.41805969E-06
  0.904999971       2.83039242E-07
  0.916000009      -8.15057660E-07
  0.926999986      -1.68261226E-06
  0.938000023      -1.26768361E-06
  0.949000001       4.30597453E-07
  0.959999979      -1.44202897E-06
  0.971000016      -3.55694624E-06
  0.981999993       7.58168781E-08
  0.992999971       3.05353592E-06
   1.00399995      -2.86333432E-07
   1.01499999      -8.36782647E-07
   1.02600002       5.39932989E-06
   1.03699994       6.03227909E-06
   1.04799998      -2.00083423E-06
   1.05900002      -5.78620075E-06
   1.07000005      -1.67254723E-06
   1.08099997       6.59040040E-07
   1.09200001      -2.01564012E-06
   1.10300004      -1.85512818E-06
   1.11399996       4.12627924E-06
   1.12500000       5.75682088E-06
   1.13600004      -1.12908265E-06
   1.14699996      -4.22737321E-06
   1.15799999      -2.84756482E-07
   1.16900003      -1.07126277E-06
   1.17999995      -4.02668684E-06
   1.19099998       6.80052835E-07
   1.20200002       3.67749089E-06
   1.21300006      -7.61996205E-07
   1.22399998      -1.86793187E-07
   1.23500001       4.22426046E-06
   1.24600005       9.12042083E-07
   1.25699997      -2.93379094E-06
   1.26800001       1.43240356E-07
   1.27900004       1.67951907E-06
   1.28999996       2.76357213E-07
   1.30100000       1.41345231E-06
   1.31200004       1.70675617E-06
   1.32299995      -6.19542334E-07
   1.33399999      -2.34075492E-06
   1.34500003      -3.79629705E-06
   1.35599995      -2.92425648E-06
   1.36699998       1.67138967E-06
   1.37800002       2.75467778E-06
   1.38900006      -1.19022855E-06
