 -0.959999979       0.00000000
 -0.925000012      -2.50932662E-05
 -0.889999986      -5.84242298E-05
 -0.855000019      -1.93209868E-04
 -0.819999993      -3.34945333E-04
 -0.785000026      -2.42198366E-04
 -0.750000000      -7.47214479E-04
 -0.714999974      -2.88278749E-03
 -0.680000007      -4.99210600E-03
 -0.644999981      -5.76258404E-03
 -0.610000014      -9.15930886E-03
 -0.574999988      -1.74620189E-02
 -0.540000021      -2.42906976E-02
 -0.504999995      -2.55929120E-02
 -0.469999999      -2.59010270E-02
 -0.435000002      -2.30908841E-02
 -0.400000006      -5.83169982E-03
 -0.365000010       2.73533165E-02
 -0.330000013       6.91294670E-02
 -0.294999987      0.119565174
 -0.259999990      0.177296922
 -0.224999994      0.229691327
 -0.189999998      0.273999929
 -0.155000001      0.327976018
 -0.119999997      0.409287244
  -8.50000009E-02  0.526576877
  -5.00000007E-02  0.678312123
  -1.49999997E-02  0.820681989
   1.99999996E-02  0.836887181
   5.49999997E-02  0.552665174
   9.00000036E-02 -0.223898128
  0.125000000      -1.65084255
  0.159999996      -3.76693106
  0.194999993      -6.39746761
  0.230000004      -9.10284328
  0.264999986      -11.1859951
  0.300000012      -11.7825584
  0.335000008      -10.0623817
  0.370000005      -5.49865580
  0.405000001       1.87939918
  0.439999998       11.3116674
  0.474999994       21.3000679
  0.509999990       29.8549976
  0.545000017       34.9422340
  0.579999983       34.9738960
  0.615000010       29.2291279
  0.649999976       18.1108494
  0.685000002       3.12800288
  0.720000029      -13.4002743
  0.754999995      -28.7878151
  0.790000021      -40.4635124
  0.824999988      -46.4549065
  0.860000014      -45.7964554
  0.894999981      -38.7257423
  0.930000007      -26.6030369
  0.964999974      -11.6040087
   1.00000000       3.73239326
   1.03499997       17.0226536
   1.07000005       26.4961529
   1.10500002       31.2368774
   1.13999999       31.1696835
   1.17499995       26.9174576
   1.21000004       19.6442566
   1.24500000       10.8674021
   1.27999997       2.20769691
   1.31500006      -4.88582659
   1.35000002      -9.40764999
   1.38499999      -11.0323162
   1.41999996      -10.1886988
   1.45500004      -7.84920979
   1.49000001      -5.10451794
   1.52499998      -2.75142264
   1.55999994      -1.09113991
   1.59500003      -2.96466146E-03
   1.63000000      0.783655465
