 -0.800000012       0.00000000
 -0.788999975       0.00000000
 -0.777999997       0.00000000
 -0.767000020      -1.46848162E-20
 -0.755999982      -1.03339949E-12
 -0.745000005      -1.03339949E-12
 -0.734000027      -2.48015879E-11
 -0.722999990       6.20039714E-11
 -0.712000012       1.65343919E-11
 -0.700999975      -1.98412703E-10
 -0.689999998      -9.92063515E-11
 -0.679000020       7.44047657E-10
 -0.667999983      -3.63756636E-10
 -0.657000005      -9.25925947E-10
 -0.646000028       1.87665350E-09
 -0.634999990      -1.32275135E-09
 -0.624000013      -2.38095232E-09
 -0.612999976       4.76190465E-09
 -0.601999998       1.58730162E-09
 -0.591000021      -5.68783065E-09
 -0.579999983      -1.00529105E-08
 -0.569000006       2.39417997E-08
 -0.558000028       2.11640216E-09
 -0.546999991      -3.91534414E-08
 -0.536000013       6.61375665E-09
 -0.524999976       6.82539678E-08
 -0.513999999      -1.29298945E-08
 -0.503000021      -1.42857147E-07
 -0.492000014       5.74074086E-08
 -0.481000006       2.21693128E-07
 -0.469999999      -1.49735456E-07
 -0.458999991      -2.33862437E-07
 -0.448000014       2.92592603E-07
 -0.437000006       1.55026456E-07
 -0.425999999      -4.14285722E-07
 -0.414999992      -1.84126989E-07
 -0.404000014       4.83333338E-07
 -0.393000007       2.37037042E-07
 -0.381999999      -1.34920640E-07
 -0.370999992      -1.77777778E-07
 -0.360000014      -9.12169355E-07
 -0.349000007       9.05291017E-07
 -0.338000000       1.63809523E-06
 -0.326999992      -3.06296306E-06
 -0.316000015      -2.12698410E-06
 -0.305000007       7.14920634E-06
 -0.294000000       2.95449740E-06
 -0.282999992      -1.36433864E-05
 -0.272000015      -1.38346559E-06
 -0.261000007       2.14349220E-05
 -0.250000000      -6.26560859E-06
 -0.238999993      -2.72402121E-05
 -0.228000000       2.17343913E-05
 -0.216999993       2.13507938E-05
 -0.206000000      -3.76264543E-05
 -0.194999993      -5.84127019E-06
 -0.184000000       5.60507942E-05
 -0.172999993      -2.24264550E-05
 -0.162000000      -6.47026463E-05
 -0.150999993       5.55534389E-05
 -0.140000001       5.64701077E-05
 -0.128999993      -8.69132273E-05
 -0.118000001      -2.25439162E-05
 -0.107000001       9.20359817E-05
  -9.60000008E-02  -2.75587299E-05
  -8.50000009E-02  -5.26095246E-05
  -7.40000010E-02   7.35407448E-05
  -6.30000010E-02  -1.07026453E-05
  -5.20000011E-02  -8.21597932E-05
  -4.10000011E-02   2.79809537E-05
  -2.99999993E-02   7.63513235E-05
  -1.89999994E-02  -2.44656094E-05
  -8.00000038E-03  -3.38603168E-05
   3.00000003E-03  -1.76529102E-05
   1.40000004E-02   1.19259266E-05
   2.50000004E-02   9.04507979E-05
   3.59999985E-02  -6.92063477E-05
   4.69999984E-02  -1.59817995E-04
   5.79999983E-02   1.84154502E-04
   6.89999983E-02   7.72433850E-05
   7.99999982E-02  -1.64534402E-04
   9.09999982E-02   1.44491016E-04
  0.101999998       6.14179908E-06
  0.112999998      -3.66632827E-04
  0.123999998       1.59483607E-04
  0.135000005       4.98488895E-04
  0.145999998      -3.35805293E-04
  0.157000005      -3.17189435E-04
  0.167999998       2.52850790E-04
  0.179000005       3.12296288E-05
  0.189999998       1.08664550E-04
  0.201000005       2.23153445E-04
  0.211999997      -5.29388373E-04
  0.223000005      -2.10590486E-04
  0.233999997       5.01553470E-04
  0.245000005      -1.43703714E-04
  0.256000012      -1.86319579E-04
  0.266999990       1.06580323E-03
  0.277999997      -8.94145167E-04
  0.289000005      -1.27806992E-03
  0.300000012       1.72866462E-03
  0.310999990       9.22226463E-04
  0.321999997      -1.88711111E-03
  0.333000004      -2.51911115E-04
  0.344000012       8.52249737E-04
  0.354999989      -1.08308996E-04
  0.365999997       4.64965095E-04
  0.377000004       8.70789459E-04
  0.388000011      -1.86194293E-03
  0.398999989      -8.46289971E-04
  0.409999996       2.69837887E-03
  0.421000004      -1.06632803E-03
  0.432000011      -2.38171429E-03
  0.442999989       3.32411425E-03
  0.453999996       5.52888901E-04
  0.465000004      -3.53631331E-03
  0.476000011       2.42570206E-03
  0.486999989       1.85935874E-03
  0.497999996      -4.83940775E-03
  0.509000003       7.25104765E-04
  0.519999981       4.58648056E-03
  0.531000018      -3.88270058E-03
  0.541999996      -1.96976098E-03
  0.552999973       6.48567220E-03
  0.564000010      -1.07420108E-03
  0.574999988      -5.53947082E-03
  0.586000025       2.82615889E-03
  0.597000003       1.26757252E-03
  0.607999980      -3.41866678E-03
  0.619000018       2.43801065E-03
  0.629999995       3.12066032E-03
  0.640999973      -3.72503721E-03
  0.652000010      -5.20169328E-04
  0.662999988       1.43156829E-03
  0.674000025      -2.26960704E-03
  0.685000002       2.85895891E-03
  0.695999980       1.75635563E-03
  0.707000017      -5.29506058E-03
  0.717999995       1.12475769E-03
  0.728999972       5.64144785E-03
  0.740000010      -4.34953673E-03
  0.750999987      -4.04851651E-03
  0.762000024       5.68259927E-03
  0.773000002       1.35022227E-03
  0.783999979      -4.49743075E-03
  0.795000017       8.71373573E-04
  0.805999994       2.32894812E-03
  0.816999972      -1.42821588E-03
  0.828000009      -1.46086351E-03
  0.838999987       6.82975689E-04
  0.850000024       1.59708364E-03
  0.861000001       3.41252919E-04
  0.871999979      -3.28359217E-03
  0.883000016       3.44456086E-04
  0.893999994       5.03576081E-03
  0.904999971      -1.40011427E-03
  0.916000009      -4.77600005E-03
  0.926999986       2.82895355E-03
  0.938000023       1.57382432E-03
  0.949000001      -3.98046151E-03
  0.959999979       1.77599583E-03
  0.971000016       3.87889752E-03
  0.981999993      -2.36207829E-03
  0.992999971      -1.90761487E-03
   1.00399995       2.30920370E-04
   1.01499999      -1.39779050E-03
   1.02600002       2.26449734E-03
   1.03699994       2.86978553E-03
   1.04799998      -3.51015944E-03
   1.05900002      -4.06801060E-04
   1.07000005       3.30828200E-03
   1.08099997      -4.45369445E-03
   1.09200001      -1.65154925E-03
   1.10300004       8.30043014E-03
   1.11399996      -9.96352406E-04
   1.12500000      -8.42429604E-03
   1.13600004       4.13571531E-03
   1.14699996       5.16821072E-03
   1.15799999      -6.75425818E-03
   1.16900003      -1.03748834E-03
   1.17999995       7.24109542E-03
   1.19099998      -2.02926365E-03
   1.20200002      -5.63165313E-03
   1.21300006       3.35043925E-03
   1.22399998       3.70395556E-03
   1.23500001      -2.72979890E-03
   1.24600005      -2.58140103E-03
   1.25699997       8.94887606E-04
   1.26800001       1.84181589E-03
   1.27900004       8.92322787E-05
   1.28999996      -1.18959055E-03
   1.30100000       1.01737888E-03
   1.31200004       1.11251115E-03
   1.32299995      -2.93841166E-03
   1.33399999      -1.64012972E-03
   1.34500003       3.19380173E-03
   1.35599995       1.47237943E-03
   1.36699998      -1.41415244E-03
   1.37800002       2.09857142E-04
   1.38900006      -3.01359796E-05
