 -0.800000012       0.00000000
 -0.788999975       0.00000000
 -0.777999997       0.00000000
 -0.767000020      -1.28375514E-25
 -0.755999982      -3.30543926E-12
 -0.745000005      -7.23186233E-11
 -0.734000027       5.49395751E-10
 -0.722999990      -1.30755651E-09
 -0.712000012      -7.47664153E-10
 -0.700999975       9.16009757E-09
 -0.689999998      -1.08182201E-08
 -0.679000020      -2.31805721E-08
 -0.667999983       6.38031281E-08
 -0.657000005       1.15892149E-08
 -0.646000028      -1.88275848E-07
 -0.634999990       1.08340878E-07
 -0.624000013       3.55797425E-07
 -0.612999976      -4.23419522E-07
 -0.601999998      -4.04386981E-07
 -0.591000021       8.62441880E-07
 -0.579999983       4.14106971E-09
 -0.569000006      -9.86834607E-07
 -0.558000028       1.28847512E-06
 -0.546999991       1.05397318E-08
 -0.536000013      -3.82213057E-06
 -0.524999976       2.58965633E-06
 -0.513999999       7.26237249E-06
 -0.503000021      -6.05057539E-06
 -0.492000014      -9.46762702E-06
 -0.481000006       8.26458654E-06
 -0.469999999       5.91093703E-06
 -0.458999991      -8.16282227E-06
 -0.448000014       7.34564446E-06
 -0.437000006       8.28853626E-06
 -0.425999999      -2.62977774E-05
 -0.414999992      -1.09482316E-05
 -0.404000014       3.61385573E-05
 -0.393000007       8.55525741E-06
 -0.381999999      -2.53604558E-05
 -0.370999992       1.23590498E-05
 -0.360000014       2.79019400E-06
 -0.349000007      -4.56531307E-05
 -0.338000000       1.98000380E-05
 -0.326999992       6.90837551E-05
 -0.316000015      -4.59053954E-05
 -0.305000007      -8.76195263E-05
 -0.294000000       2.76313476E-05
 -0.282999992       1.78362134E-05
 -0.272000015      -7.34356217E-05
 -0.261000007      -2.99723115E-06
 -0.250000000       2.68580716E-05
 -0.238999993      -1.26150655E-04
 -0.228000000      -1.42564444E-04
 -0.216999993      -1.17238487E-05
 -0.206000000      -6.94081609E-05
 -0.194999993      -2.10825194E-04
 -0.184000000      -2.14125481E-04
 -0.172999993      -2.62626010E-04
 -0.162000000      -3.94181086E-04
 -0.150999993      -4.28439642E-04
 -0.140000001      -5.17459237E-04
 -0.128999993      -7.65508739E-04
 -0.118000001      -9.18659964E-04
 -0.107000001      -1.02569046E-03
  -9.60000008E-02  -1.35530822E-03
  -8.50000009E-02  -1.71611400E-03
  -7.40000010E-02  -1.91832962E-03
  -6.30000010E-02  -2.22585234E-03
  -5.20000011E-02  -2.68882583E-03
  -4.10000011E-02  -3.06085614E-03
  -2.99999993E-02  -3.42786429E-03
  -1.89999994E-02  -3.92216071E-03
  -8.00000038E-03  -4.31030104E-03
   3.00000003E-03  -4.50050551E-03
   1.40000004E-02  -4.68282355E-03
   2.50000004E-02  -4.80144983E-03
   3.59999985E-02  -4.61081509E-03
   4.69999984E-02  -4.06417297E-03
   5.79999983E-02  -3.18882032E-03
   6.89999983E-02  -1.85776839E-03
   7.99999982E-02   1.38355201E-04
   9.09999982E-02   2.92647420E-03
  0.101999998       6.50699390E-03
  0.112999998       1.09516755E-02
  0.123999998       1.64843332E-02
  0.135000005       2.31682565E-02
  0.145999998       3.08971982E-02
  0.157000005       3.97647843E-02
  0.167999998       4.98528369E-02
  0.179000005       6.08669743E-02
  0.189999998       7.25353882E-02
  0.201000005       8.47911388E-02
  0.211999997       9.72326919E-02
  0.223000005      0.109143957
  0.233999997      0.119962461
  0.245000005      0.129052117
  0.256000012      0.135431260
  0.266999990      0.138066754
  0.277999997      0.135887876
  0.289000005      0.127610549
  0.300000012      0.111992009
  0.310999990       8.78712609E-02
  0.321999997       5.38943633E-02
  0.333000004       8.75047501E-03
  0.344000012      -4.85348515E-02
  0.354999989     -0.118834928
  0.365999997     -0.202875510
  0.377000004     -0.300840795
  0.388000011     -0.412516862
  0.398999989     -0.537496984
  0.409999996     -0.674723923
  0.421000004     -0.822209001
  0.432000011     -0.977412343
  0.442999989      -1.13737214
  0.453999996      -1.29833639
  0.465000004      -1.45569456
  0.476000011      -1.60427952
  0.486999989      -1.73843026
  0.497999996      -1.85189819
  0.509000003      -1.93810511
  0.519999981      -1.99051642
  0.531000018      -2.00266981
  0.541999996      -1.96825671
  0.552999973      -1.88162720
  0.564000010      -1.73817408
  0.574999988      -1.53442693
  0.586000025      -1.26838064
  0.597000003     -0.939861059
  0.607999980     -0.550573647
  0.619000018     -0.104339659
  0.629999995      0.392518967
  0.640999973      0.931342185
  0.652000010       1.50145125
  0.662999988       2.09004378
  0.674000025       2.68237638
  0.685000002       3.26245260
  0.695999980       3.81337786
  0.707000017       4.31764412
  0.717999995       4.75802088
  0.728999972       5.11838961
  0.740000010       5.38410902
  0.750999987       5.54265451
  0.762000024       5.58447742
  0.773000002       5.50335646
  0.783999979       5.29661942
  0.795000017       4.96561623
  0.805999994       4.51586390
  0.816999972       3.95677638
  0.828000009       3.30150986
  0.838999987       2.56662393
  0.850000024       1.77128744
  0.861000001      0.936660647
  0.871999979       8.54096636E-02
  0.883000016     -0.759348869
  0.893999994      -1.57521343
  0.904999971      -2.34101009
  0.916000009      -3.03726554
  0.926999986      -3.64723253
  0.938000023      -4.15765905
  0.949000001      -4.55882359
  0.959999979      -4.84465981
  0.971000016      -5.01314974
  0.981999993      -5.06615686
  0.992999971      -5.00882912
   1.00399995      -4.84939861
   1.01499999      -4.59900713
   1.02600002      -4.27086449
   1.03699994      -3.87932467
   1.04799998      -3.43955564
   1.05900002      -2.96722293
   1.07000005      -2.47763658
   1.08099997      -1.98493457
   1.09200001      -1.50187182
   1.10300004      -1.03978288
   1.11399996     -0.608231664
   1.12500000     -0.214668274
   1.13600004      0.135531798
   1.14699996      0.438880116
   1.15799999      0.693710744
   1.16900003      0.900114059
   1.17999995       1.05969143
   1.19099998       1.17517579
   1.20200002       1.25011408
   1.21300006       1.28873563
   1.22399998       1.29580438
   1.23500001       1.27625215
   1.24600005       1.23489141
   1.25699997       1.17643285
   1.26800001       1.10537755
   1.27900004       1.02568233
   1.28999996      0.940751612
   1.30100000      0.853639126
   1.31200004      0.766878128
   1.32299995      0.682318747
   1.33399999      0.601433635
   1.34500003      0.525485635
   1.35599995      0.455278307
   1.36699998      0.391145676
   1.37800002      0.333211184
   1.38900006      0.281408906
