 -0.800000012       0.00000000
 -0.788999975       0.00000000
 -0.777999997      -1.80621043E-06
 -0.767000020      -5.26109807E-06
 -0.755999982      -4.03047579E-07
 -0.745000005       8.20756122E-06
 -0.734000027      -6.48800494E-07
 -0.722999990      -1.36391891E-05
 -0.712000012      -4.10925259E-06
 -0.700999975       4.77983758E-06
 -0.689999998      -8.29046894E-06
 -0.679000020      -1.60320469E-05
 -0.667999983      -1.11582749E-05
 -0.657000005      -1.42558156E-05
 -0.646000028      -2.05914421E-05
 -0.634999990      -3.17658742E-05
 -0.624000013      -5.88922194E-05
 -0.612999976      -7.70786937E-05
 -0.601999998      -8.67501949E-05
 -0.591000021      -1.31836743E-04
 -0.579999983      -1.94121807E-04
 -0.569000006      -2.39177723E-04
 -0.558000028      -3.17563710E-04
 -0.546999991      -4.45178564E-04
 -0.536000013      -5.63930837E-04
 -0.524999976      -7.11061759E-04
 -0.513999999      -9.64035280E-04
 -0.503000021      -1.27787015E-03
 -0.492000014      -1.63011276E-03
 -0.481000006      -2.11682054E-03
 -0.469999999      -2.76220497E-03
 -0.458999991      -3.52780474E-03
 -0.448000014      -4.49110474E-03
 -0.437000006      -5.74895972E-03
 -0.425999999      -7.31535302E-03
 -0.414999992      -9.25642904E-03
 -0.404000014      -1.16858082E-02
 -0.393000007      -1.46592977E-02
 -0.381999999      -1.82814989E-02
 -0.370999992      -2.27393191E-02
 -0.360000014      -2.81529631E-02
 -0.349000007      -3.46356109E-02
 -0.338000000      -4.24160734E-02
 -0.326999992      -5.17014302E-02
 -0.316000015      -6.26305938E-02
 -0.305000007      -7.54396990E-02
 -0.294000000      -9.04054865E-02
 -0.282999992     -0.107691504
 -0.272000015     -0.127468169
 -0.261000007     -0.149987087
 -0.250000000     -0.175412104
 -0.238999993     -0.203801692
 -0.228000000     -0.235231742
 -0.216999993     -0.269716471
 -0.206000000     -0.307113647
 -0.194999993     -0.347209156
 -0.184000000     -0.389710605
 -0.172999993     -0.434138596
 -0.162000000     -0.479871809
 -0.150999993     -0.526197374
 -0.140000001     -0.572208941
 -0.128999993     -0.616802812
 -0.118000001     -0.658793271
 -0.107000001     -0.696885586
  -9.60000008E-02 -0.729619563
  -8.50000009E-02 -0.755479813
  -7.40000010E-02 -0.772958636
  -6.30000010E-02 -0.780500114
  -5.20000011E-02 -0.776583076
  -4.10000011E-02 -0.759870052
  -2.99999993E-02 -0.729188979
  -1.89999994E-02 -0.683530748
  -8.00000038E-03 -0.622197449
   3.00000003E-03 -0.544860005
   1.40000004E-02 -0.451526314
   2.50000004E-02 -0.342631131
   3.59999985E-02 -0.219098106
   4.69999984E-02  -8.22584480E-02
   5.79999983E-02   6.61394447E-02
   6.89999983E-02  0.223859414
   7.99999982E-02  0.388278782
   9.09999982E-02  0.556495428
  0.101999998      0.725302279
  0.112999998      0.891281247
  0.123999998       1.05099130
  0.135000005       1.20099711
  0.145999998       1.33790958
  0.157000005       1.45859671
  0.167999998       1.56029010
  0.179000005       1.64057708
  0.189999998       1.69753063
  0.201000005       1.72982609
  0.211999997       1.73669541
  0.223000005       1.71795809
  0.233999997       1.67412245
  0.245000005       1.60630906
  0.256000012       1.51614451
  0.266999990       1.40579152
  0.277999997       1.27789152
  0.289000005       1.13539171
  0.300000012      0.981497228
  0.310999990      0.819628119
  0.321999997      0.653226376
  0.333000004      0.485634923
  0.344000012      0.320106328
  0.354999989      0.159700289
  0.365999997       7.12877885E-03
  0.377000004     -0.135250732
  0.388000011     -0.265442967
  0.398999989     -0.381918132
  0.409999996     -0.483607858
  0.421000004     -0.569819450
  0.432000011     -0.640275240
  0.442999989     -0.695146620
  0.453999996     -0.734932661
  0.465000004     -0.760391057
  0.476000011     -0.772572458
  0.486999989     -0.772730172
  0.497999996     -0.762191117
  0.509000003     -0.742392898
  0.519999981     -0.714881003
  0.531000018     -0.681139708
  0.541999996     -0.642543435
  0.552999973     -0.600449026
  0.564000010     -0.556132138
  0.574999988     -0.510682225
  0.586000025     -0.465071768
  0.597000003     -0.420181751
  0.607999980     -0.376694530
  0.619000018     -0.335122377
  0.629999995     -0.295913309
  0.640999973     -0.259399593
  0.652000010     -0.225753710
  0.662999988     -0.195075229
  0.674000025     -0.167397603
  0.685000002     -0.142639667
  0.695999980     -0.120686665
  0.707000017     -0.101437785
  0.717999995      -8.47139060E-02
  0.728999972      -7.02699348E-02
  0.740000010      -5.79079688E-02
  0.750999987      -4.74425666E-02
  0.762000024      -3.86319682E-02
  0.773000002      -3.12613398E-02
  0.783999979      -2.51791459E-02
  0.795000017      -2.02000588E-02
  0.805999994      -1.61151662E-02
  0.816999972      -1.27936676E-02
  0.828000009      -1.01458710E-02
  0.838999987      -8.04450549E-03
  0.850000024      -6.37574075E-03
  0.861000001      -5.07471571E-03
  0.871999979      -4.06704657E-03
  0.883000016      -3.27611971E-03
  0.893999994      -2.67475122E-03
  0.904999971      -2.24051182E-03
  0.916000009      -1.91628956E-03
  0.926999986      -1.66533806E-03
  0.938000023      -1.47950498E-03
  0.949000001      -1.32934586E-03
  0.959999979      -1.19155017E-03
  0.971000016      -1.07806188E-03
  0.981999993      -9.75540199E-04
  0.992999971      -8.40783352E-04
   1.00399995      -6.77471631E-04
   1.01499999      -5.18821296E-04
   1.02600002      -3.57951591E-04
   1.03699994      -1.79630340E-04
   1.04799998      -2.11257955E-07
   1.05900002       1.74324203E-04
   1.07000005       3.53423413E-04
   1.08099997       5.17641485E-04
   1.09200001       6.40296319E-04
   1.10300004       7.27703213E-04
   1.11399996       7.92022969E-04
   1.12500000       8.27130920E-04
   1.13600004       8.27900891E-04
   1.14699996       7.94411986E-04
   1.15799999       7.26136903E-04
   1.16900003       6.33869437E-04
   1.17999995       5.34120889E-04
   1.19099998       4.28418105E-04
   1.20200002       3.10757430E-04
   1.21300006       1.84432560E-04
   1.22399998       5.71474375E-05
   1.23500001      -6.44977699E-05
   1.24600005      -1.71707099E-04
   1.25699997      -2.60061119E-04
   1.26800001      -3.38205253E-04
   1.27900004      -4.17599542E-04
   1.28999996      -4.94298234E-04
   1.30100000      -5.52420563E-04
   1.31200004      -5.87531598E-04
   1.32299995      -6.11291500E-04
   1.33399999      -6.29036338E-04
   1.34500003      -6.32540090E-04
   1.35599995      -6.16518606E-04
   1.36699998      -5.80549764E-04
   1.37800002      -5.20451809E-04
   1.38900006      -4.38357209E-04
