 -0.800000012       0.00000000
 -0.788999975       0.00000000
 -0.777999997      -3.67235430E-07
 -0.767000020       1.32673256E-06
 -0.755999982       2.35589846E-06
 -0.745000005      -7.04120021E-06
 -0.734000027      -6.92042295E-06
 -0.722999990       1.94519198E-05
 -0.712000012       1.04474948E-05
 -0.700999975      -3.72506001E-05
 -0.689999998      -1.67038354E-06
 -0.679000020       5.36001280E-05
 -0.667999983      -3.12973680E-05
 -0.657000005      -4.61076343E-05
 -0.646000028       1.07033069E-04
 -0.634999990      -4.25687404E-06
 -0.624000013      -2.44505965E-04
 -0.612999976       6.61687081E-05
 -0.601999998       3.98995151E-04
 -0.591000021      -9.04370900E-05
 -0.579999983      -4.44499514E-04
 -0.569000006       1.22351514E-04
 -0.558000028       3.58359597E-04
 -0.546999991      -1.79170223E-04
 -0.536000013      -2.18651054E-04
 -0.524999976       1.69395920E-04
 -0.513999999       4.08829765E-05
 -0.503000021      -8.47916453E-05
 -0.492000014       1.18182776E-04
 -0.481000006      -6.50559014E-06
 -0.469999999      -6.85475170E-05
 -0.458999991       2.66307354E-04
 -0.448000014       2.28525605E-05
 -0.437000006      -4.36270842E-04
 -0.425999999       1.23775069E-04
 -0.414999992       5.91619406E-04
 -0.404000014      -3.21784973E-05
 -0.393000007      -1.22275291E-04
 -0.381999999       6.32228970E-04
 -0.370999992       4.83988319E-04
 -0.360000014       1.59398587E-05
 -0.349000007       7.71285850E-04
 -0.338000000       1.53583812E-03
 -0.326999992       1.25641993E-03
 -0.316000015       1.28127472E-03
 -0.305000007       2.12507322E-03
 -0.294000000       2.97769206E-03
 -0.282999992       3.94826243E-03
 -0.272000015       5.11760265E-03
 -0.261000007       6.08356437E-03
 -0.250000000       7.58598279E-03
 -0.238999993       1.01729566E-02
 -0.228000000       1.28705166E-02
 -0.216999993       1.56806093E-02
 -0.206000000       1.98078752E-02
 -0.194999993       2.48392988E-02
 -0.184000000       2.99342256E-02
 -0.172999993       3.62557769E-02
 -0.162000000       4.46089990E-02
 -0.150999993       5.37629277E-02
 -0.140000001       6.33256733E-02
 -0.128999993       7.45870546E-02
 -0.118000001       8.77809674E-02
 -0.107000001      0.101876542
  -9.60000008E-02  0.116673551
  -8.50000009E-02  0.132549897
  -7.40000010E-02  0.149055436
  -6.30000010E-02  0.165331706
  -5.20000011E-02  0.180885047
  -4.10000011E-02  0.195121527
  -2.99999993E-02  0.206952989
  -1.89999994E-02  0.215047091
  -8.00000038E-03  0.217845097
   3.00000003E-03  0.213609263
   1.40000004E-02  0.200780600
   2.50000004E-02  0.177642941
   3.59999985E-02  0.141725570
   4.69999984E-02   9.04515982E-02
   5.79999983E-02   2.19037719E-02
   6.89999983E-02  -6.57389462E-02
   7.99999982E-02 -0.174522802
   9.09999982E-02 -0.306025624
  0.101999998     -0.461178243
  0.112999998     -0.640466511
  0.123999998     -0.843592465
  0.135000005      -1.06918120
  0.145999998      -1.31457293
  0.157000005      -1.57576978
  0.167999998      -1.84804833
  0.179000005      -2.12550068
  0.189999998      -2.39961147
  0.201000005      -2.66057491
  0.211999997      -2.89920735
  0.223000005      -3.10475922
  0.233999997      -3.26379156
  0.245000005      -3.36388946
  0.256000012      -3.39437103
  0.266999990      -3.34320593
  0.277999997      -3.19889975
  0.289000005      -2.95408726
  0.300000012      -2.60350347
  0.310999990      -2.14276433
  0.321999997      -1.57171690
  0.333000004     -0.895137727
  0.344000012     -0.121049657
  0.354999989      0.738289356
  0.365999997       1.66596413
  0.377000004       2.64172459
  0.388000011       3.64160109
  0.398999989       4.63839483
  0.409999996       5.60384130
  0.421000004       6.50794983
  0.432000011       7.31903362
  0.442999989       8.00831890
  0.453999996       8.55115795
  0.465000004       8.92358303
  0.476000011       9.10470867
  0.486999989       9.08255100
  0.497999996       8.85213757
  0.509000003       8.41152477
  0.519999981       7.76570463
  0.531000018       6.93012333
  0.541999996       5.92588520
  0.552999973       4.77657223
  0.564000010       3.51238275
  0.574999988       2.17045808
  0.586000025      0.788228810
  0.597000003     -0.598401845
  0.607999980      -1.95131743
  0.619000018      -3.23223019
  0.629999995      -4.40831089
  0.640999973      -5.45189333
  0.652000010      -6.33844090
  0.662999988      -7.04899693
  0.674000025      -7.57233858
  0.685000002      -7.90405226
  0.695999980      -8.04559326
  0.707000017      -8.00347519
  0.717999995      -7.78935957
  0.728999972      -7.42152405
  0.740000010      -6.92252493
  0.750999987      -6.31459236
  0.762000024      -5.62124681
  0.773000002      -4.87007332
  0.783999979      -4.08762836
  0.795000017      -3.29560232
  0.805999994      -2.51524901
  0.816999972      -1.76816249
  0.828000009      -1.07025111
  0.838999987     -0.431792766
  0.850000024      0.137315974
  0.861000001      0.628989220
  0.871999979       1.04125631
  0.883000016       1.37587738
  0.893999994       1.63449311
  0.904999971       1.82039762
  0.916000009       1.94057775
  0.926999986       2.00301790
  0.938000023       2.01450109
  0.949000001       1.98248827
  0.959999979       1.91606736
  0.971000016       1.82345331
  0.981999993       1.71079004
  0.992999971       1.58397365
   1.00399995       1.44933808
   1.01499999       1.31213176
   1.02600002       1.17581475
   1.03699994       1.04301202
   1.04799998      0.916450083
   1.05900002      0.798513055
   1.07000005      0.690062881
   1.08099997      0.590981007
   1.09200001      0.501923323
   1.10300004      0.423639029
   1.11399996      0.355220228
   1.12500000      0.295453668
   1.13600004      0.244412735
   1.14699996      0.201738879
   1.15799999      0.165817708
   1.16900003      0.135714144
   1.17999995      0.111205235
   1.19099998       9.11804885E-02
   1.20200002       7.44117349E-02
   1.21300006       6.06906861E-02
   1.22399998       4.97268401E-02
   1.23500001       4.04824428E-02
   1.24600005       3.21965367E-02
   1.25699997       2.48984229E-02
   1.26800001       1.87583286E-02
   1.27900004       1.34075023E-02
   1.28999996       8.30127206E-03
   1.30100000       3.71813681E-03
   1.31200004       1.94173641E-04
   1.32299995      -2.80215265E-03
   1.33399999      -5.66487899E-03
   1.34500003      -7.40163075E-03
   1.35599995      -7.83295184E-03
   1.36699998      -8.31567496E-03
   1.37800002      -8.66763759E-03
   1.38900006      -7.43654231E-03
