 -0.959999979       0.00000000
 -0.925000012      -2.30957067E-21
 -0.889999986       1.61970115E-14
 -0.855000019       5.17679866E-13
 -0.819999993      -3.81961281E-13
 -0.785000026      -2.67631533E-12
 -0.750000000      -1.08579196E-11
 -0.714999974       1.59654356E-11
 -0.680000007      -1.19919916E-11
 -0.644999981       5.98367536E-11
 -0.610000014      -4.50828645E-11
 -0.574999988       1.04874970E-10
 -0.540000021       4.84913720E-10
 -0.504999995      -1.40007006E-09
 -0.469999999      -1.61382407E-09
 -0.435000002       4.54818805E-09
 -0.400000006       1.04700770E-09
 -0.365000010      -5.46506040E-09
 -0.330000013      -1.04978897E-08
 -0.294999987       2.30312942E-08
 -0.259999990       1.13147918E-08
 -0.224999994      -6.33141468E-08
 -0.189999998       5.10202760E-08
 -0.155000001       7.14594535E-08
 -0.119999997      -1.27811319E-07
  -8.50000009E-02   4.22100976E-09
  -5.00000007E-02   1.07749450E-07
  -1.49999997E-02  -1.22514621E-07
   1.99999996E-02   6.98349467E-08
   5.49999997E-02   3.05002487E-07
   9.00000036E-02  -1.97992250E-07
  0.125000000      -3.71965257E-07
  0.159999996       2.29356274E-07
  0.194999993       2.87386428E-07
  0.230000004      -6.18384988E-08
  0.264999986       5.00631536E-08
  0.300000012      -2.85176810E-07
  0.335000008      -7.63065486E-07
  0.370000005      -7.01004907E-08
  0.405000001       9.45498130E-07
  0.439999998       4.14115704E-07
  0.474999994      -6.38573340E-07
  0.509999990      -4.81914583E-07
  0.545000017      -4.17982058E-08
  0.579999983      -1.15871636E-07
  0.615000010       2.67197862E-07
  0.649999976       8.45357647E-07
  0.685000002       5.29020156E-07
  0.720000029      -7.85871350E-08
  0.754999995      -2.20158469E-07
  0.790000021      -1.52706065E-07
  0.824999988       1.50265826E-08
  0.860000014      -1.70550479E-07
  0.894999981      -4.48674058E-07
  0.930000007       1.03788558E-07
  0.964999974       2.75663410E-07
   1.00000000      -5.22408925E-07
   1.03499997      -2.61004828E-07
   1.07000005       1.17412071E-06
   1.10500002       5.54889652E-07
   1.13999999      -9.47420347E-07
   1.17499995      -1.51218728E-07
   1.21000004       5.59017508E-07
   1.24500000      -7.53355891E-07
   1.27999997      -3.85078152E-07
   1.31500006       7.25963787E-07
   1.35000002      -5.85418036E-07
   1.38499999      -4.80146980E-07
   1.41999996       1.00342004E-06
   1.45500004       5.11948457E-08
   1.49000001      -7.51748303E-07
   1.52499998       9.44822105E-08
   1.55999994      -4.23931539E-07
   1.59500003      -5.85408998E-07
   1.63000000       1.12345367E-06
