 -0.959999979       0.00000000
 -0.925000012       0.00000000
 -0.889999986      -1.61669949E-22
 -0.855000019       1.13379076E-15
 -0.819999993       3.62375908E-14
 -0.785000026      -2.56035004E-14
 -0.750000000      -1.51104471E-13
 -0.714999974      -7.85657834E-13
 -0.680000007       9.66476031E-13
 -0.644999981      -1.62509719E-12
 -0.610000014       5.15504870E-12
 -0.574999988      -4.78089747E-12
 -0.540000021       1.24962965E-11
 -0.504999995       2.91630609E-11
 -0.469999999      -8.55086141E-11
 -0.435000002      -8.38046230E-11
 -0.400000006       2.32864561E-10
 -0.365000010      -1.05140879E-11
 -0.330000013      -1.49689663E-10
 -0.294999987      -7.45366380E-10
 -0.259999990       1.46250090E-09
 -0.224999994       4.66691130E-11
 -0.189999998      -2.96948954E-09
 -0.155000001       3.61808850E-09
 -0.119999997       2.03267225E-09
  -8.50000009E-02  -5.32870414E-09
  -5.00000007E-02   2.32814279E-09
  -1.49999997E-02   2.21375696E-09
   1.99999996E-02  -6.24788132E-09
   5.49999997E-02   7.10220327E-09
   9.00000036E-02   1.51022945E-08
  0.125000000      -6.75725476E-09
  0.159999996      -1.09352758E-08
  0.194999993       9.29768351E-09
  0.230000004       9.18177534E-09
  0.264999986       4.96898744E-09
  0.300000012       1.26861952E-08
  0.335000008      -1.49933879E-08
  0.370000005      -4.07283913E-08
  0.405000001      -1.99004244E-08
  0.439999998       2.54564831E-08
  0.474999994       9.08767905E-09
  0.509999990      -1.92436502E-08
  0.545000017      -2.46463436E-08
  0.579999983      -2.21695267E-08
  0.615000010      -3.27573595E-08
  0.649999976      -3.46567575E-09
  0.685000002       2.64176769E-08
  0.720000029       3.35657369E-08
  0.754999995       2.09165787E-08
  0.790000021       1.81546422E-08
  0.824999988       1.02271551E-08
  0.860000014       1.92065048E-08
  0.894999981      -1.71137837E-09
  0.930000007      -1.22006787E-08
  0.964999974       5.55382140E-09
   1.00000000       7.09575998E-09
   1.03499997      -3.10148032E-08
   1.07000005      -1.11745777E-08
   1.10500002       5.11736538E-08
   1.13999999       2.76677010E-08
   1.17499995      -1.51457673E-08
   1.21000004       1.70823888E-08
   1.24500000       2.39854572E-08
   1.27999997      -3.56525263E-08
   1.31500006      -2.97001534E-09
   1.35000002       1.51649395E-08
   1.38499999      -4.39492780E-08
   1.41999996      -1.84453466E-08
   1.45500004       2.62901292E-08
   1.49000001      -1.48617048E-08
   1.52499998      -2.63322519E-08
   1.55999994      -8.24794988E-09
   1.59500003      -5.60074618E-08
   1.63000000      -4.92265819E-08
