 -0.800000012       0.00000000
 -0.788999975       0.00000000
 -0.777999997       0.00000000
 -0.767000020       0.00000000
 -0.755999982       0.00000000
 -0.745000005      -7.27196488E-14
 -0.734000027      -1.59100988E-12
 -0.722999990       1.20139870E-11
 -0.712000012      -3.03572549E-11
 -0.700999975      -4.43462628E-12
 -0.689999998       1.71164902E-10
 -0.679000020      -2.42435572E-10
 -0.667999983      -3.38807787E-10
 -0.657000005       1.16123333E-09
 -0.646000028      -8.38453473E-11
 -0.634999990      -2.98083536E-09
 -0.624000013       2.29965536E-09
 -0.612999976       4.84670837E-09
 -0.601999998      -7.01557612E-09
 -0.591000021      -4.04980627E-09
 -0.579999983       1.19581482E-08
 -0.569000006      -3.95870003E-09
 -0.558000028      -9.75221592E-09
 -0.546999991       2.43877629E-08
 -0.536000013      -9.52032142E-09
 -0.524999976      -5.96991327E-08
 -0.513999999       4.74520654E-08
 -0.503000021       1.00073095E-07
 -0.492000014      -8.56605240E-08
 -0.481000006      -1.08214692E-07
 -0.469999999       9.61603774E-08
 -0.458999991       2.18258336E-08
 -0.448000014      -8.34217815E-08
 -0.437000006       1.83430117E-07
 -0.425999999       9.89261437E-08
 -0.414999992      -3.95121020E-07
 -0.404000014      -1.41934834E-07
 -0.393000007       3.99927103E-07
 -0.381999999       4.62798688E-08
 -0.370999992      -1.58003118E-07
 -0.360000014       3.18180213E-07
 -0.349000007      -9.66182228E-08
 -0.338000000      -6.86189935E-07
 -0.326999992       3.38980186E-07
 -0.316000015       8.33652223E-07
 -0.305000007      -6.70933275E-07
 -0.294000000      -1.09397183E-06
 -0.282999992      -6.30472954E-08
 -0.272000015      -7.01583815E-07
 -0.261000007      -1.67863720E-06
 -0.250000000      -7.67513825E-07
 -0.238999993      -1.08773008E-06
 -0.228000000      -3.54284225E-06
 -0.216999993      -4.22421863E-06
 -0.206000000      -3.80073106E-06
 -0.194999993      -5.75106287E-06
 -0.184000000      -8.43894122E-06
 -0.172999993      -1.04619994E-05
 -0.162000000      -1.42167000E-05
 -0.150999993      -1.91339532E-05
 -0.140000001      -2.36423275E-05
 -0.128999993      -3.05176727E-05
 -0.118000001      -4.04835337E-05
 -0.107000001      -5.07291043E-05
  -9.60000008E-02  -6.30488212E-05
  -8.50000009E-02  -8.05446325E-05
  -7.40000010E-02  -1.00803183E-04
  -6.30000010E-02  -1.22748839E-04
  -5.20000011E-02  -1.49771673E-04
  -4.10000011E-02  -1.81903117E-04
  -2.99999993E-02  -2.17112203E-04
  -1.89999994E-02  -2.57315114E-04
  -8.00000038E-03  -3.03396111E-04
   3.00000003E-03  -3.52142873E-04
   1.40000004E-02  -4.02412028E-04
   2.50000004E-02  -4.55164613E-04
   3.59999985E-02  -5.08040306E-04
   4.69999984E-02  -5.56601910E-04
   5.79999983E-02  -5.97451231E-04
   6.89999983E-02  -6.26754481E-04
   7.99999982E-02  -6.38327561E-04
   9.09999982E-02  -6.23717031E-04
  0.101999998      -5.73938480E-04
  0.112999998      -4.80552553E-04
  0.123999998      -3.33004806E-04
  0.135000005      -1.17908712E-04
  0.145999998       1.76690650E-04
  0.157000005       5.61829016E-04
  0.167999998       1.05152198E-03
  0.179000005       1.65860413E-03
  0.189999998       2.39060121E-03
  0.201000005       3.25437495E-03
  0.211999997       4.25599841E-03
  0.223000005       5.39349439E-03
  0.233999997       6.65716967E-03
  0.245000005       8.03267583E-03
  0.256000012       9.49631538E-03
  0.266999990       1.10121481E-02
  0.277999997       1.25337746E-02
  0.289000005       1.40017038E-02
  0.300000012       1.53412400E-02
  0.310999990       1.64655261E-02
  0.321999997       1.72743760E-02
  0.333000004       1.76511724E-02
  0.344000012       1.74668785E-02
  0.354999989       1.65834222E-02
  0.365999997       1.48525368E-02
  0.377000004       1.21201780E-02
  0.388000011       8.23402591E-03
  0.398999989       3.04477196E-03
  0.409999996      -3.59091978E-03
  0.421000004      -1.17991287E-02
  0.432000011      -2.16794964E-02
  0.442999989      -3.33021991E-02
  0.453999996      -4.67016771E-02
  0.465000004      -6.18655980E-02
  0.476000011      -7.87269920E-02
  0.486999989      -9.71597880E-02
  0.497999996     -0.116972432
  0.509000003     -0.137901500
  0.519999981     -0.159610778
  0.531000018     -0.181692913
  0.541999996     -0.203669459
  0.552999973     -0.224994481
  0.564000010     -0.245065212
  0.574999988     -0.263234258
  0.586000025     -0.278822631
  0.597000003     -0.291138738
  0.607999980     -0.299499631
  0.619000018     -0.303251386
  0.629999995     -0.301795065
  0.640999973     -0.294615895
  0.652000010     -0.281305581
  0.662999988     -0.261584044
  0.674000025     -0.235324547
  0.685000002     -0.202571630
  0.695999980     -0.163550600
  0.707000017     -0.118677415
  0.717999995      -6.85624927E-02
  0.728999972      -1.40009699E-02
  0.740000010       4.40420881E-02
  0.750999987      0.104449444
  0.762000024      0.165980533
  0.773000002      0.227308035
  0.783999979      0.287054390
  0.795000017      0.343833506
  0.805999994      0.396297872
  0.816999972      0.443182647
  0.828000009      0.483347088
  0.838999987      0.515815914
  0.850000024      0.539812863
  0.861000001      0.554784238
  0.871999979      0.560419202
  0.883000016      0.556663036
  0.893999994      0.543713570
  0.904999971      0.522008598
  0.916000009      0.492211610
  0.926999986      0.455188811
  0.938000023      0.411972344
  0.949000001      0.363720149
  0.959999979      0.311678141
  0.971000016      0.257137597
  0.981999993      0.201388955
  0.992999971      0.145682365
   1.00399995       9.11946669E-02
   1.01499999       3.89952660E-02
   1.02600002      -9.98360105E-03
   1.03699994      -5.49635328E-02
   1.04799998      -9.53286141E-02
   1.05900002     -0.130633801
   1.07000005     -0.160607487
   1.08099997     -0.185141742
   1.09200001     -0.204276130
   1.10300004     -0.218183011
   1.11399996     -0.227151260
   1.12500000     -0.231563926
   1.13600004     -0.231873989
   1.14699996     -0.228582501
   1.15799999     -0.222218782
   1.16900003     -0.213320717
   1.17999995     -0.202416107
   1.19099998     -0.190007582
   1.20200002     -0.176562414
   1.21300006     -0.162505075
   1.22399998     -0.148210093
   1.23500001     -0.133997306
   1.24600005     -0.120132565
   1.25699997     -0.106829688
   1.26800001      -9.42509919E-02
   1.27900004      -8.25114176E-02
   1.28999996      -7.16861337E-02
   1.30100000      -6.18150569E-02
   1.31200004      -5.29062077E-02
   1.32299995      -4.49437127E-02
   1.33399999      -3.78949530E-02
   1.34500003      -3.17119174E-02
   1.35599995      -2.63341852E-02
   1.36699998      -2.16958318E-02
   1.37800002      -1.77290943E-02
   1.38900006      -1.43653629E-02
