 -0.959999979       0.00000000
 -0.925000012       2.07973443E-08
 -0.889999986       2.60028457E-07
 -0.855000019       3.92678174E-07
 -0.819999993       5.60403407E-07
 -0.785000026       1.85385750E-06
 -0.750000000       4.07469224E-06
 -0.714999974       8.79777417E-06
 -0.680000007       1.76370613E-05
 -0.644999981       2.66886746E-05
 -0.610000014       4.27174455E-05
 -0.574999988       8.38398264E-05
 -0.540000021       1.41435303E-04
 -0.504999995       1.94080145E-04
 -0.469999999       2.57095788E-04
 -0.435000002       3.38237936E-04
 -0.400000006       3.95981799E-04
 -0.365000010       4.27600753E-04
 -0.330000013       5.17059409E-04
 -0.294999987       8.08207842E-04
 -0.259999990       1.64004776E-03
 -0.224999994       3.75054101E-03
 -0.189999998       8.29118397E-03
 -0.155000001       1.67934541E-02
 -0.119999997       3.11227087E-02
  -8.50000009E-02   5.30298725E-02
  -5.00000007E-02   8.32647532E-02
  -1.49999997E-02  0.120628029
   1.99999996E-02  0.161065102
   5.49999997E-02  0.196999177
   9.00000036E-02  0.217621669
  0.125000000      0.210543230
  0.159999996      0.164486617
  0.194999993       7.25798905E-02
  0.230000004      -6.44196421E-02
  0.264999986     -0.236208439
  0.300000012     -0.423270404
  0.335000008     -0.599418700
  0.370000005     -0.736019015
  0.405000001     -0.807094932
  0.439999998     -0.794053018
  0.474999994     -0.688918412
  0.509999990     -0.495790422
  0.545000017     -0.230599597
  0.579999983       8.07525367E-02
  0.615000010      0.405482322
  0.649999976      0.707657933
  0.685000002      0.952212691
  0.720000029       1.10898042
  0.754999995       1.15642285
  0.790000021       1.08478272
  0.824999988      0.898441374
  0.860000014      0.617088735
  0.894999981      0.274970442
  0.930000007      -8.26487616E-02
  0.964999974     -0.406159431
   1.00000000     -0.650669098
   1.03499997     -0.785498083
   1.07000005     -0.801315308
   1.10500002     -0.712119341
   1.13999999     -0.550748348
   1.17499995     -0.359153599
   1.21000004     -0.176789165
   1.24500000      -3.11499778E-02
   1.27999997       6.64240122E-02
   1.31500006      0.118872702
   1.35000002      0.137405589
   1.38499999      0.134817556
   1.41999996      0.121127516
   1.45500004      0.102664724
   1.49000001       8.36294889E-02
   1.52499998       6.79586455E-02
   1.55999994       5.95908128E-02
   1.59500003       6.07379414E-02
   1.63000000       6.95417821E-02
