 -0.959999979       0.00000000
 -0.925000012       8.92331736E-05
 -0.889999986       1.04762113E-03
 -0.855000019       1.16278231E-03
 -0.819999993       8.51928373E-04
 -0.785000026       4.32644272E-03
 -0.750000000       1.11296857E-02
 -0.714999974       1.83953121E-02
 -0.680000007       3.09515316E-02
 -0.644999981       5.54938652E-02
 -0.610000014       9.13247019E-02
 -0.574999988      0.135280356
 -0.540000021      0.182966411
 -0.504999995      0.220887780
 -0.469999999      0.227670953
 -0.435000002      0.179617763
 -0.400000006       5.25448844E-02
 -0.365000010     -0.161530823
 -0.330000013     -0.421773881
 -0.294999987     -0.619472146
 -0.259999990     -0.584868371
 -0.224999994     -0.118533626
 -0.189999998      0.935439944
 -0.155000001       2.57259035
 -0.119999997       4.51278591
  -8.50000009E-02   6.14563608
  -5.00000007E-02   6.58813572
  -1.49999997E-02   4.90109253
   1.99999996E-02  0.458468050
   5.49999997E-02  -6.63600159
   9.00000036E-02  -15.2550354
  0.125000000      -23.2493534
  0.159999996      -27.8707314
  0.194999993      -26.5977764
  0.230000004      -18.1290283
  0.264999986      -3.16480899
  0.300000012       15.3911562
  0.335000008       33.0272179
  0.370000005       44.9334641
  0.405000001       47.5866394
  0.439999998       39.9906540
  0.474999994       24.0719414
  0.509999990       4.05680656
  0.545000017      -14.9390001
  0.579999983      -28.5435963
  0.615000010      -34.3587608
  0.649999976      -32.4033661
  0.685000002      -24.7398529
  0.720000029      -14.5284805
  0.754999995      -4.90262794
  0.790000021       1.95239425
  0.824999988       5.27842760
  0.860000014       5.70258141
  0.894999981       4.72280979
  0.930000007       3.91628671
  0.964999974       4.19112110
   1.00000000       5.40676451
   1.03499997       6.54880667
   1.07000005       6.39419556
   1.10500002       4.32476711
   1.13999999      0.819840670
   1.17499995      -2.68597698
   1.21000004      -4.53612757
   1.24500000      -3.78387022
   1.27999997     -0.784832418
   1.31500006       2.91976094
   1.35000002       5.38962078
   1.38499999       5.30464506
   1.41999996       2.64575815
   1.45500004      -1.33209062
   1.49000001      -4.79592037
   1.52499998      -6.28731394
   1.55999994      -5.39844608
   1.59500003      -2.83538628
   1.63000000       8.89570788E-02
