 -0.800000012       0.00000000
 -0.788999975       0.00000000
 -0.777999997       0.00000000
 -0.767000020       0.00000000
 -0.755999982      -1.30535860E-11
 -0.745000005       6.25098653E-11
 -0.734000027      -2.54223365E-10
 -0.722999990       4.68938499E-10
 -0.712000012       5.05171627E-10
 -0.700999975      -3.56243901E-09
 -0.689999998       3.95572020E-09
 -0.679000020       7.21774596E-09
 -0.667999983      -2.33126283E-08
 -0.657000005       6.26161922E-09
 -0.646000028       6.15047071E-08
 -0.634999990      -7.16299979E-08
 -0.624000013      -9.81995925E-08
 -0.612999976       2.00308136E-07
 -0.601999998       1.02556683E-07
 -0.591000021      -2.78603494E-07
 -0.579999983      -1.19521744E-07
 -0.569000006      -7.48069553E-08
 -0.558000028       3.75728547E-07
 -0.546999991       1.59406841E-06
 -0.536000013      -1.18636888E-06
 -0.524999976      -5.16413047E-06
 -0.513999999       2.42318606E-06
 -0.503000021       1.09521516E-05
 -0.492000014      -2.82992892E-06
 -0.481000006      -1.67532016E-05
 -0.469999999       4.60859923E-07
 -0.458999991       1.67293947E-05
 -0.448000014       4.34212097E-06
 -0.437000006      -3.82200824E-06
 -0.425999999      -5.18017305E-06
 -0.414999992      -2.14486372E-05
 -0.404000014      -7.05252478E-06
 -0.393000007       4.28271815E-05
 -0.381999999       2.82817382E-05
 -0.370999992      -4.18866875E-05
 -0.360000014      -3.68739420E-05
 -0.349000007       2.79780779E-05
 -0.338000000       3.45859917E-05
 -0.326999992      -8.37338121E-06
 -0.316000015      -4.48865540E-05
 -0.305000007      -6.49621943E-05
 -0.294000000      -3.83659644E-05
 -0.282999992      -1.19158594E-05
 -0.272000015      -9.50046233E-05
 -0.261000007      -1.87735641E-04
 -0.250000000      -1.37993935E-04
 -0.238999993      -1.13910042E-04
 -0.228000000      -2.93441146E-04
 -0.216999993      -4.97212750E-04
 -0.206000000      -5.82788780E-04
 -0.194999993      -6.93206850E-04
 -0.184000000      -9.09763505E-04
 -0.172999993      -1.22343248E-03
 -0.162000000      -1.72261545E-03
 -0.150999993      -2.36277143E-03
 -0.140000001      -2.97092763E-03
 -0.128999993      -3.67203634E-03
 -0.118000001      -4.74886829E-03
 -0.107000001      -6.18973793E-03
  -9.60000008E-02  -7.88353011E-03
  -8.50000009E-02  -9.91003867E-03
  -7.40000010E-02  -1.23558212E-02
  -6.30000010E-02  -1.52939195E-02
  -5.20000011E-02  -1.89092476E-02
  -4.10000011E-02  -2.32648347E-02
  -2.99999993E-02  -2.82733180E-02
  -1.89999994E-02  -3.40648368E-02
  -8.00000038E-03  -4.08860072E-02
   3.00000003E-03  -4.87358496E-02
   1.40000004E-02  -5.75578213E-02
   2.50000004E-02  -6.74396455E-02
   3.59999985E-02  -7.83793032E-02
   4.69999984E-02  -9.03271213E-02
   5.79999983E-02 -0.103364699
   6.89999983E-02 -0.117382102
   7.99999982E-02 -0.131964386
   9.09999982E-02 -0.146858841
  0.101999998     -0.161985070
  0.112999998     -0.176988617
  0.123999998     -0.191320732
  0.135000005     -0.204485968
  0.145999998     -0.215887815
  0.157000005     -0.224857062
  0.167999998     -0.230861500
  0.179000005     -0.233303159
  0.189999998     -0.231386513
  0.201000005     -0.224439427
  0.211999997     -0.211980596
  0.223000005     -0.193493307
  0.233999997     -0.168549746
  0.245000005     -0.136979565
  0.256000012      -9.86952409E-02
  0.266999990      -5.36887273E-02
  0.277999997      -2.28148117E-03
  0.289000005       5.49208671E-02
  0.300000012      0.117231749
  0.310999990      0.183808848
  0.321999997      0.253556430
  0.333000004      0.325256288
  0.344000012      0.397620827
  0.354999989      0.469194353
  0.365999997      0.538445175
  0.377000004      0.603975594
  0.388000011      0.664481997
  0.398999989      0.718658388
  0.409999996      0.765356362
  0.421000004      0.803670943
  0.432000011      0.832783341
  0.442999989      0.852007151
  0.453999996      0.860986710
  0.465000004      0.859579086
  0.476000011      0.847689986
  0.486999989      0.825370014
  0.497999996      0.792787254
  0.509000003      0.750087976
  0.519999981      0.697504342
  0.531000018      0.635382414
  0.541999996      0.563942790
  0.552999973      0.483295411
  0.564000010      0.393660605
  0.574999988      0.295315295
  0.586000025      0.188503206
  0.597000003       7.35781938E-02
  0.607999980      -4.89196107E-02
  0.619000018     -0.178285152
  0.629999995     -0.313539326
  0.640999973     -0.453326494
  0.652000010     -0.595927417
  0.662999988     -0.739268363
  0.674000025     -0.880935490
  0.685000002      -1.01819217
  0.695999980      -1.14795899
  0.707000017      -1.26688886
  0.717999995      -1.37155390
  0.728999972      -1.45858550
  0.740000010      -1.52479470
  0.750999987      -1.56732368
  0.762000024      -1.58375657
  0.773000002      -1.57223976
  0.783999979      -1.53165090
  0.795000017      -1.46171737
  0.805999994      -1.36307967
  0.816999972      -1.23730958
  0.828000009      -1.08684409
  0.838999987     -0.914929390
  0.850000024     -0.725576580
  0.861000001     -0.523414195
  0.871999979     -0.313501626
  0.883000016     -0.101179689
  0.893999994      0.108148471
  0.904999971      0.309276074
  0.916000009      0.497344971
  0.926999986      0.667958558
  0.938000023      0.817332625
  0.949000001      0.942467749
  0.959999979       1.04131877
  0.971000016       1.11280358
  0.981999993       1.15664983
  0.992999971       1.17338264
   1.00399995       1.16438901
   1.01499999       1.13176298
   1.02600002       1.07814431
   1.03699994       1.00668693
   1.04799998      0.920844257
   1.05900002      0.824100256
   1.07000005      0.719969392
   1.08099997      0.611934662
   1.09200001      0.503185809
   1.10300004      0.396562576
   1.11399996      0.294581831
   1.12500000      0.199279055
   1.13600004      0.112203844
   1.14699996       3.45695093E-02
   1.15799999      -3.28508765E-02
   1.16900003      -8.98179561E-02
   1.17999995     -0.136426657
   1.19099998     -0.173021361
   1.20200002     -0.200254366
   1.21300006     -0.218924567
   1.22399998     -0.229855731
   1.23500001     -0.234037116
   1.24600005     -0.232601777
   1.25699997     -0.226600602
   1.26800001     -0.216978282
   1.27900004     -0.204644844
   1.28999996     -0.190408781
   1.30100000     -0.174962699
   1.31200004     -0.158937648
   1.32299995     -0.142839760
   1.33399999     -0.127028108
   1.34500003     -0.111831658
   1.35599995      -9.75409895E-02
   1.36699998      -8.42987597E-02
   1.37800002      -7.21631572E-02
   1.38900006      -6.11978583E-02
