 -0.800000012       0.00000000
 -0.788999975       0.00000000
 -0.777999997       0.00000000
 -0.767000020       3.34304676E-12
 -0.755999982      -1.05616496E-11
 -0.745000005      -1.40186812E-11
 -0.734000027       1.74862902E-11
 -0.722999990       3.55550242E-11
 -0.712000012      -2.54253119E-10
 -0.700999975       5.17650700E-10
 -0.689999998      -1.14368758E-10
 -0.679000020      -4.39661085E-10
 -0.667999983      -1.20327776E-10
 -0.657000005      -1.29282773E-09
 -0.646000028       4.73119366E-09
 -0.634999990      -4.42340248E-10
 -0.624000013      -4.41502523E-09
 -0.612999976      -1.27351052E-09
 -0.601999998      -3.36708728E-09
 -0.591000021       1.03145643E-08
 -0.579999983       1.40613086E-08
 -0.569000006      -3.88279382E-08
 -0.558000028       9.20657328E-09
 -0.546999991       6.35583106E-08
 -0.536000013      -6.02244867E-08
 -0.524999976      -7.79377487E-08
 -0.513999999       1.21145845E-07
 -0.503000021       7.86980223E-08
 -0.492000014      -2.12277811E-07
 -0.481000006       1.24984894E-08
 -0.469999999       5.96639609E-08
 -0.458999991       2.65425825E-07
 -0.448000014       2.53907587E-07
 -0.437000006      -1.21475182E-06
 -0.425999999      -4.06455143E-07
 -0.414999992       2.36082997E-06
 -0.404000014       2.82862715E-07
 -0.393000007      -3.00651345E-06
 -0.381999999       4.02213587E-08
 -0.370999992       1.80832194E-06
 -0.360000014       1.81093935E-06
 -0.349000007       2.39071778E-06
 -0.338000000      -8.78731953E-06
 -0.326999992      -9.92530386E-06
 -0.316000015       1.85296085E-05
 -0.305000007       2.10910239E-05
 -0.294000000      -2.43584200E-05
 -0.282999992      -3.33183634E-05
 -0.272000015       1.64096218E-05
 -0.261000007       4.65973462E-05
 -0.250000000       8.27418262E-06
 -0.238999993      -5.55943116E-05
 -0.228000000      -4.01199322E-05
 -0.216999993       4.07309672E-05
 -0.206000000       6.21060608E-05
 -0.194999993       9.70208930E-06
 -0.184000000      -6.92531685E-05
 -0.172999993      -8.41474102E-05
 -0.162000000       7.36541188E-05
 -0.150999993       1.49902742E-04
 -0.140000001      -8.10447382E-05
 -0.128999993      -1.97982954E-04
 -0.118000001       1.01023623E-04
 -0.107000001       2.17676585E-04
  -9.60000008E-02  -1.02244216E-04
  -8.50000009E-02  -1.94454464E-04
  -7.40000010E-02   7.23737685E-05
  -6.30000010E-02   1.16507093E-04
  -5.20000011E-02  -4.05070168E-05
  -4.10000011E-02  -1.50603009E-05
  -2.99999993E-02   3.86537431E-05
  -1.89999994E-02  -7.56570007E-05
  -8.00000038E-03  -6.13906304E-05
   3.00000003E-03   1.42738441E-04
   1.40000004E-02   7.19615346E-05
   2.50000004E-02  -1.85263212E-04
   3.59999985E-02  -1.35811628E-04
   4.69999984E-02   2.51441612E-04
   5.79999983E-02   2.89921853E-04
   6.89999983E-02  -2.11227976E-04
   7.99999982E-02  -5.08687343E-04
   9.09999982E-02  -4.74538137E-05
  0.101999998       5.74079342E-04
  0.112999998       4.36839851E-04
  0.123999998      -4.34655638E-04
  0.135000005      -7.25516817E-04
  0.145999998       3.31197050E-04
  0.157000005       7.39291543E-04
  0.167999998      -2.29939469E-04
  0.179000005      -5.78041712E-04
  0.189999998       3.86420015E-06
  0.201000005       4.13715316E-04
  0.211999997       3.62281746E-04
  0.223000005      -3.12943157E-04
  0.233999997      -6.77928911E-04
  0.245000005      -6.23600208E-05
  0.256000012       6.96862466E-04
  0.266999990       6.24834851E-04
  0.277999997      -5.72851568E-05
  0.289000005      -9.73830582E-04
  0.300000012      -1.00189156E-03
  0.310999990       7.00973207E-04
  0.321999997       1.90515479E-03
  0.333000004      -3.02747521E-05
  0.344000012      -1.62664591E-03
  0.354999989      -2.74544174E-04
  0.365999997       5.28258213E-04
  0.377000004      -3.71694361E-04
  0.388000011       4.74680601E-05
  0.398999989       1.12281879E-03
  0.409999996       4.04217833E-04
  0.421000004      -1.04680180E-03
  0.432000011      -1.33388396E-03
  0.442999989       2.98076193E-04
  0.453999996       1.84642512E-03
  0.465000004       2.85375892E-04
  0.476000011      -1.98468752E-03
  0.486999989      -3.79598525E-04
  0.497999996       1.92316086E-03
  0.509000003       4.95761458E-04
  0.519999981      -1.41893548E-03
  0.531000018      -9.90876579E-04
  0.541999996       8.26400879E-04
  0.552999973       1.52540847E-03
  0.564000010       5.46812080E-04
  0.574999988      -1.40927918E-03
  0.586000025      -1.96701358E-03
  0.597000003      -6.46940200E-04
  0.607999980       1.21698494E-03
  0.619000018       2.66447081E-03
  0.629999995       1.41617481E-03
  0.640999973      -2.25156755E-03
  0.652000010      -2.77890172E-03
  0.662999988       4.47377010E-04
  0.674000025       1.56625686E-03
  0.685000002       7.93212501E-04
  0.695999980       4.08104563E-04
  0.707000017      -5.11969207E-04
  0.717999995      -8.75658239E-04
  0.728999972      -8.14413070E-05
  0.740000010       2.48680415E-04
  0.750999987      -3.54389515E-04
  0.762000024      -8.26658579E-05
  0.773000002      -9.73734932E-05
  0.783999979       3.72317263E-05
  0.795000017       1.74740807E-03
  0.805999994       1.34400127E-03
  0.816999972      -1.75181171E-03
  0.828000009      -2.67092721E-03
  0.838999987      -6.84113300E-04
  0.850000024       1.45970029E-03
  0.861000001       2.71643233E-03
  0.871999979       7.75732857E-04
  0.883000016      -2.53698416E-03
  0.893999994      -9.73088027E-04
  0.904999971       1.59028522E-03
  0.916000009      -7.12091511E-04
  0.926999986      -1.29236071E-03
  0.938000023       2.01542070E-03
  0.949000001       1.23782759E-03
  0.959999979      -1.91679737E-03
  0.971000016      -9.44573025E-04
  0.981999993       7.61797535E-04
  0.992999971       5.17773558E-04
   1.00399995       9.30600218E-04
   1.01499999       4.57790993E-05
   1.02600002      -1.88015343E-03
   1.03699994      -3.80721962E-04
   1.04799998       1.70631020E-03
   1.05900002       1.00750178E-04
   1.07000005      -1.39606546E-03
   1.08099997      -3.08636227E-04
   1.09200001       9.01846623E-04
   1.10300004       1.45569211E-03
   1.11399996       1.55480142E-04
   1.12500000      -2.19441974E-03
   1.13600004      -7.17796094E-04
   1.14699996       2.01217737E-03
   1.15799999      -2.04462449E-05
   1.16900003      -1.59880042E-03
   1.17999995       1.17937580E-03
   1.19099998       1.22932263E-03
   1.20200002      -1.46629836E-03
   1.21300006      -4.22346231E-04
   1.22399998       8.69420182E-04
   1.23500001      -8.14141764E-04
   1.24600005      -3.01756867E-04
   1.25699997       1.54047145E-03
   1.26800001       1.78837523E-04
   1.27900004      -1.05983962E-03
   1.28999996      -2.41855130E-04
   1.30100000      -3.66830587E-04
   1.31200004       4.44119833E-05
   1.32299995       1.71053130E-03
   1.33399999       5.37403452E-04
   1.34500003      -1.82298874E-03
   1.35599995      -7.79330498E-04
   1.36699998       8.54839338E-04
   1.37800002       1.62360986E-04
   1.38900006      -1.30619912E-04
