 -0.959999979       0.00000000
 -0.925000012       4.60825246E-23
 -0.889999986       9.18205174E-08
 -0.855000019       1.47097194E-06
 -0.819999993       3.34272795E-06
 -0.785000026       2.11261340E-06
 -0.750000000       3.56753117E-06
 -0.714999974       1.96861893E-05
 -0.680000007       4.49591025E-05
 -0.644999981       6.76296331E-05
 -0.610000014       1.03427177E-04
 -0.574999988       1.79150680E-04
 -0.540000021       2.97890540E-04
 -0.504999995       4.48206032E-04
 -0.469999999       6.13031792E-04
 -0.435000002       7.60752882E-04
 -0.400000006       8.68358242E-04
 -0.365000010       9.37520817E-04
 -0.330000013       9.74985480E-04
 -0.294999987       1.05005165E-03
 -0.259999990       1.44584104E-03
 -0.224999994       2.75806361E-03
 -0.189999998       5.93808480E-03
 -0.155000001       1.23765543E-02
 -0.119999997       2.39148643E-02
  -8.50000009E-02   4.25957292E-02
  -5.00000007E-02   7.01063499E-02
  -1.49999997E-02  0.106859140
   1.99999996E-02  0.150703475
   5.49999997E-02  0.195632428
   9.00000036E-02  0.231122434
  0.125000000      0.242745757
  0.159999996      0.214623645
  0.194999993      0.133769020
  0.230000004      -4.74525895E-03
  0.264999986     -0.193615466
  0.300000012     -0.411830187
  0.335000008     -0.626999199
  0.370000005     -0.801454246
  0.405000001     -0.900354683
  0.439999998     -0.899068058
  0.474999994     -0.787771583
  0.509999990     -0.572571754
  0.545000017     -0.273626238
  0.579999983       7.83010125E-02
  0.615000010      0.445391387
  0.649999976      0.786125541
  0.685000002       1.05913055
  0.720000029       1.22808266
  0.754999995       1.26752555
  0.790000021       1.16856122
  0.824999988      0.942427635
  0.860000014      0.620000899
  0.894999981      0.246655658
  0.930000007     -0.126373351
  0.964999974     -0.451773942
   1.00000000     -0.694209635
   1.03499997     -0.834446192
   1.07000005     -0.869197369
   1.10500002     -0.808065236
   1.13999999     -0.669608176
   1.17499995     -0.478171289
   1.21000004     -0.261823028
   1.24500000      -5.02783582E-02
   1.27999997      0.128580883
   1.31500006      0.253665566
   1.35000002      0.315456420
   1.38499999      0.318090558
   1.41999996      0.276983052
   1.45500004      0.212461323
   1.49000001      0.142381221
   1.52499998       7.74787515E-02
   1.55999994       2.14975290E-02
   1.59500003      -2.49251556E-02
   1.63000000      -5.99841140E-02
