 -0.959999979       0.00000000
 -0.925000012       0.00000000
 -0.889999986       2.50833643E-09
 -0.855000019       2.58473385E-08
 -0.819999993       1.16054217E-07
 -0.785000026       3.14121195E-07
 -0.750000000       5.96727489E-07
 -0.714999974       1.06913353E-06
 -0.680000007       2.34137156E-06
 -0.644999981       5.29281215E-06
 -0.610000014       1.04816136E-05
 -0.574999988       1.87033056E-05
 -0.540000021       3.20338222E-05
 -0.504999995       5.30759062E-05
 -0.469999999       8.33089944E-05
 -0.435000002       1.22740181E-04
 -0.400000006       1.69415798E-04
 -0.365000010       2.17534020E-04
 -0.330000013       2.56723055E-04
 -0.294999987       2.73318845E-04
 -0.259999990       2.51740741E-04
 -0.224999994       1.77335824E-04
 -0.189999998       4.21707773E-05
 -0.155000001      -1.50171632E-04
 -0.119999997      -3.82761355E-04
  -8.50000009E-02  -6.21537445E-04
  -5.00000007E-02  -8.06714757E-04
  -1.49999997E-02  -8.41883651E-04
   1.99999996E-02  -5.83958754E-04
   5.49999997E-02   1.55287562E-04
   9.00000036E-02   1.57008390E-03
  0.125000000       3.75644700E-03
  0.159999996       6.53595664E-03
  0.194999993       9.23436414E-03
  0.230000004       1.04862843E-02
  0.264999986       8.17905925E-03
  0.300000012      -3.46489833E-04
  0.335000008      -1.77729577E-02
  0.370000005      -4.59926203E-02
  0.405000001      -8.51543993E-02
  0.439999998     -0.132828236
  0.474999994     -0.183583409
  0.509999990     -0.229225650
  0.545000017     -0.259806365
  0.579999983     -0.265331298
  0.615000010     -0.237887874
  0.649999976     -0.173749402
  0.685000002      -7.49496818E-02
  0.720000029       5.01296185E-02
  0.754999995      0.187450141
  0.790000021      0.319297999
  0.824999988      0.427236050
  0.860000014      0.495437801
  0.894999981      0.513679624
  0.930000007      0.479303092
  0.964999974      0.397682905
   1.00000000      0.281105280
   1.03499997      0.146357134
   1.07000005       1.16135702E-02
   1.10500002     -0.106676824
   1.13999999     -0.196277007
   1.17499995     -0.250599116
   1.21000004     -0.268968403
   1.24500000     -0.255851120
   1.27999997     -0.219347224
   1.31500006     -0.169317573
   1.35000002     -0.115515336
   1.38499999      -6.60458356E-02
   1.41999996      -2.63865199E-02
   1.45500004       9.29879840E-04
   1.49000001       1.60127431E-02
   1.52499998       2.08742656E-02
   1.55999994       1.85210872E-02
   1.59500003       1.21331373E-02
   1.63000000       4.48129606E-03
