 -0.800000012       0.00000000
 -0.788999975       0.00000000
 -0.777999997       0.00000000
 -0.767000020       5.43103756E-13
 -0.755999982       1.35070893E-12
 -0.745000005       2.97479957E-11
 -0.734000027      -1.26382710E-10
 -0.722999990       2.62792732E-10
 -0.712000012      -3.91123356E-10
 -0.700999975      -6.36762532E-10
 -0.689999998       5.51777823E-09
 -0.679000020      -7.11152648E-09
 -0.667999983      -1.80886328E-08
 -0.657000005       5.07907387E-08
 -0.646000028       1.84573121E-08
 -0.634999990      -1.73614097E-07
 -0.624000013       6.40823785E-08
 -0.612999976       3.87457646E-07
 -0.601999998      -3.39363851E-07
 -0.591000021      -5.81794040E-07
 -0.579999983       8.53018321E-07
 -0.569000006       4.43506735E-07
 -0.558000028      -1.42995202E-06
 -0.546999991       4.87687771E-07
 -0.536000013       1.65257995E-06
 -0.524999976      -2.42360056E-06
 -0.513999999      -1.09078007E-06
 -0.503000021       4.50607831E-06
 -0.492000014      -5.86392844E-07
 -0.481000006      -4.26308270E-06
 -0.469999999       4.12345162E-06
 -0.458999991      -8.17334637E-07
 -0.448000014      -1.04908477E-05
 -0.437000006       9.47313856E-06
 -0.425999999       1.71780048E-05
 -0.414999992      -1.66676655E-05
 -0.404000014      -1.50115666E-05
 -0.393000007       2.18712794E-05
 -0.381999999      -1.30475075E-06
 -0.370999992      -2.80027434E-05
 -0.360000014       2.12146206E-05
 -0.349000007       2.14009706E-05
 -0.338000000      -4.67875470E-05
 -0.326999992      -1.38619123E-06
 -0.316000015       8.70925942E-05
 -0.305000007       2.77024919E-05
 -0.294000000      -1.34504326E-05
 -0.282999992       9.48074594E-05
 -0.272000015       1.19896089E-04
 -0.261000007       5.76110579E-05
 -0.250000000       1.58066745E-04
 -0.238999993       2.84307578E-04
 -0.228000000       2.54518498E-04
 -0.216999993       3.35415651E-04
 -0.206000000       5.99207066E-04
 -0.194999993       7.53663655E-04
 -0.184000000       9.01482126E-04
 -0.172999993       1.30799832E-03
 -0.162000000       1.76735548E-03
 -0.150999993       2.18348484E-03
 -0.140000001       2.87557254E-03
 -0.128999993       3.83263850E-03
 -0.118000001       4.83255694E-03
 -0.107000001       6.10874407E-03
  -9.60000008E-02   7.86334090E-03
  -8.50000009E-02   9.90130939E-03
  -7.40000010E-02   1.23002054E-02
  -6.30000010E-02   1.53578017E-02
  -5.20000011E-02   1.89868528E-02
  -4.10000011E-02   2.31554378E-02
  -2.99999993E-02   2.82036979E-02
  -1.89999994E-02   3.41785066E-02
  -8.00000038E-03   4.09138799E-02
   3.00000003E-03   4.86541353E-02
   1.40000004E-02   5.75773679E-02
   2.50000004E-02   6.74441159E-02
   3.59999985E-02   7.83077404E-02
   4.69999984E-02   9.04235467E-02
   5.79999983E-02  0.103510417
   6.89999983E-02  0.117259718
   7.99999982E-02  0.131821930
   9.09999982E-02  0.146983087
  0.101999998      0.162089691
  0.112999998      0.176942214
  0.123999998      0.191380024
  0.135000005      0.204559147
  0.145999998      0.215780005
  0.157000005      0.224849060
  0.167999998      0.231062591
  0.179000005      0.233352885
  0.189999998      0.231291711
  0.201000005      0.224523827
  0.211999997      0.212103859
  0.223000005      0.193447188
  0.233999997      0.168589875
  0.245000005      0.137169227
  0.256000012       9.87203345E-02
  0.266999990       5.36191612E-02
  0.277999997       2.39909184E-03
  0.289000005      -5.48078530E-02
  0.300000012     -0.117321789
  0.310999990     -0.183862612
  0.321999997     -0.253542036
  0.333000004     -0.325438648
  0.344000012     -0.397876769
  0.354999989     -0.469295919
  0.365999997     -0.538634896
  0.377000004     -0.604401529
  0.388000011     -0.664878786
  0.398999989     -0.719025552
  0.409999996     -0.765906334
  0.421000004     -0.804205477
  0.432000011     -0.833118081
  0.442999989     -0.852402389
  0.453999996     -0.861485243
  0.465000004     -0.859869897
  0.476000011     -0.847790956
  0.486999989     -0.825436771
  0.497999996     -0.792607725
  0.509000003     -0.749563932
  0.519999981     -0.696891010
  0.531000018     -0.634656012
  0.541999996     -0.562848032
  0.552999973     -0.481974930
  0.564000010     -0.392383844
  0.574999988     -0.293977082
  0.586000025     -0.187030762
  0.597000003      -7.22357184E-02
  0.607999980       4.99957465E-02
  0.619000018      0.179195166
  0.629999995      0.314172357
  0.640999973      0.453446209
  0.652000010      0.595588505
  0.662999988      0.738617659
  0.674000025      0.879894674
  0.685000002       1.01670063
  0.695999980       1.14614117
  0.707000017       1.26483607
  0.717999995       1.36934090
  0.728999972       1.45641792
  0.740000010       1.52282178
  0.750999987       1.56557369
  0.762000024       1.58236587
  0.773000002       1.57135308
  0.783999979       1.53122747
  0.795000017       1.46178269
  0.805999994       1.36378872
  0.816999972       1.23858058
  0.828000009       1.08843088
  0.838999987      0.916803062
  0.850000024      0.727741599
  0.861000001      0.525611341
  0.871999979      0.315501630
  0.883000016      0.102990814
  0.893999994     -0.106607646
  0.904999971     -0.308250666
  0.916000009     -0.496860117
  0.926999986     -0.667836547
  0.938000023     -0.817616343
  0.949000001     -0.943336010
  0.959999979      -1.04265916
  0.971000016      -1.11435127
  0.981999993      -1.15834296
  0.992999971      -1.17516756
   1.00399995      -1.16604257
   1.01499999      -1.13320684
   1.02600002      -1.07946503
   1.03699994      -1.00777245
   1.04799998     -0.921503425
   1.05900002     -0.824378490
   1.07000005     -0.719929218
   1.08099997     -0.611481547
   1.09200001     -0.502342165
   1.10300004     -0.395471066
   1.11399996     -0.293245524
   1.12500000     -0.197708443
   1.13600004     -0.110589646
   1.14699996      -3.30023915E-02
   1.15799999       3.44618820E-02
   1.16900003       9.14194211E-02
   1.17999995      0.137834996
   1.19099998      0.174187362
   1.20200002      0.201134458
   1.21300006      0.219350412
   1.22399998      0.229808509
   1.23500001      0.233663827
   1.24600005      0.231871337
   1.25699997      0.225399286
   1.26800001      0.215409189
   1.27900004      0.202818945
   1.28999996      0.188290074
   1.30100000      0.172669992
   1.31200004      0.156715617
   1.32299995      0.140733272
   1.33399999      0.125071585
   1.34500003      0.110271975
   1.35599995       9.64855775E-02
   1.36699998       8.36088359E-02
   1.37800002       7.18512014E-02
   1.38900006       6.13957942E-02
