 -0.800000012       0.00000000
 -0.788999975       0.00000000
 -0.777999997       0.00000000
 -0.767000020       2.18335557E-38
 -0.755999982       4.12087855E-16
 -0.745000005      -2.21174236E-15
 -0.734000027       1.23519850E-15
 -0.722999990       3.88874181E-15
 -0.712000012      -1.15163345E-14
 -0.700999975      -1.56765995E-14
 -0.689999998      -3.55394442E-15
 -0.679000020      -8.21458227E-15
 -0.667999983      -8.10933691E-14
 -0.657000005       3.41994804E-14
 -0.646000028       5.32595615E-13
 -0.634999990      -2.29977143E-13
 -0.624000013      -1.20474713E-12
 -0.612999976       4.21959803E-13
 -0.601999998       2.23413388E-12
 -0.591000021      -5.43092535E-13
 -0.579999983      -4.19215227E-12
 -0.569000006      -6.80687169E-13
 -0.558000028       6.28536893E-12
 -0.546999991       4.60365123E-12
 -0.536000013      -7.82791453E-12
 -0.524999976      -1.12253791E-11
 -0.513999999       5.97740173E-12
 -0.503000021       1.33853033E-11
 -0.492000014      -3.21772969E-12
 -0.481000006      -4.40920521E-12
 -0.469999999      -3.49721901E-12
 -0.458999991      -9.34447485E-12
 -0.448000014       2.01021283E-11
 -0.437000006       1.71451967E-11
 -0.425999999      -5.03316486E-11
 -0.414999992      -2.20399827E-11
 -0.404000014       6.31465574E-11
 -0.393000007       3.49788670E-11
 -0.381999999       9.38653755E-12
 -0.370999992      -5.89346349E-11
 -0.360000014      -5.92472946E-11
 -0.349000007       1.17176616E-10
 -0.338000000      -1.31482547E-10
 -0.326999992      -3.20351884E-10
 -0.316000015       3.76752601E-10
 -0.305000007       4.94607633E-10
 -0.294000000      -3.59395180E-10
 -0.282999992      -2.89797908E-10
 -0.272000015       2.24134752E-10
 -0.261000007      -5.74997550E-11
 -0.250000000      -4.18065776E-10
 -0.238999993      -6.01880490E-10
 -0.228000000      -4.95182562E-10
 -0.216999993       7.39961536E-10
 -0.206000000       3.37161032E-09
 -0.194999993       3.22136717E-09
 -0.184000000      -3.92450383E-09
 -0.172999993      -1.03640865E-08
 -0.162000000      -2.92227154E-09
 -0.150999993       1.18436700E-08
 -0.140000001       1.15818724E-08
 -0.128999993      -4.68083394E-09
 -0.118000001      -1.26604736E-08
 -0.107000001      -2.75317524E-09
  -9.60000008E-02   8.85633256E-09
  -8.50000009E-02   5.86768767E-09
  -7.40000010E-02  -8.91440699E-09
  -6.30000010E-02  -1.39009373E-08
  -5.20000011E-02   6.84952806E-09
  -4.10000011E-02   2.72175171E-08
  -2.99999993E-02   8.28384827E-09
  -1.89999994E-02  -3.31145671E-08
  -8.00000038E-03  -2.89675057E-08
   3.00000003E-03   2.80594463E-08
   1.40000004E-02   5.62604505E-08
   2.50000004E-02   1.14858434E-08
   3.59999985E-02  -3.75532636E-08
   4.69999984E-02  -3.08575387E-08
   5.79999983E-02   1.51442858E-09
   6.89999983E-02   1.93557046E-08
   7.99999982E-02   1.63071476E-08
   9.09999982E-02  -2.52534171E-09
  0.101999998      -9.60822977E-09
  0.112999998       1.02736308E-08
  0.123999998       1.84668121E-08
  0.135000005       1.25166091E-08
  0.145999998       2.23129977E-08
  0.157000005       3.27381700E-09
  0.167999998      -4.54637039E-08
  0.179000005      -3.30346026E-08
  0.189999998       3.35487194E-08
  0.201000005       2.31031638E-08
  0.211999997      -4.60654590E-08
  0.223000005      -3.51220137E-08
  0.233999997       1.73389409E-08
  0.245000005       1.40130103E-08
  0.256000012      -3.74785714E-09
  0.266999990      -2.48160053E-08
  0.277999997      -3.64896096E-08
  0.289000005      -2.40323335E-08
  0.300000012       3.41894442E-08
  0.310999990       6.74994354E-08
  0.321999997      -1.99994510E-08
  0.333000004      -1.17994873E-07
  0.344000012      -4.75467381E-08
  0.354999989       1.16839864E-07
  0.365999997       1.11020910E-07
  0.377000004      -4.51366837E-08
  0.388000011      -9.22405192E-08
  0.398999989       2.38579823E-08
  0.409999996       9.84001218E-08
  0.421000004       1.96911714E-08
  0.432000011      -9.28750552E-08
  0.442999989      -5.88652256E-08
  0.453999996       8.64535679E-08
  0.465000004       5.69815306E-08
  0.476000011      -1.38366815E-07
  0.486999989      -1.54573016E-07
  0.497999996       4.41084396E-08
  0.509000003       2.13694960E-07
  0.519999981       1.23075523E-07
  0.531000018      -9.84914337E-08
  0.541999996      -2.08763609E-07
  0.552999973      -1.45819499E-07
  0.564000010       8.23053092E-09
  0.574999988       1.29093095E-07
  0.586000025       1.61269611E-07
  0.597000003       5.11138509E-08
  0.607999980      -1.22447318E-07
  0.619000018      -1.38348440E-07
  0.629999995      -6.45106746E-10
  0.640999973       8.77013804E-08
  0.652000010       3.82782552E-08
  0.662999988      -1.98831689E-08
  0.674000025      -5.36319504E-08
  0.685000002      -7.52718137E-08
  0.695999980      -1.13510881E-08
  0.707000017       1.06708335E-07
  0.717999995       7.30122593E-08
  0.728999972      -9.07334226E-08
  0.740000010      -1.72346972E-07
  0.750999987      -5.76529935E-08
  0.762000024       1.23426133E-07
  0.773000002       1.61001722E-07
  0.783999979       3.61414116E-08
  0.795000017      -8.90317295E-08
  0.805999994      -5.54576580E-08
  0.816999972       8.84370195E-08
  0.828000009       1.38532684E-07
  0.838999987      -1.64585092E-08
  0.850000024      -1.94019663E-07
  0.861000001      -1.53844951E-07
  0.871999979       2.96587661E-08
  0.883000016       1.29835755E-07
  0.893999994       1.16726895E-07
  0.904999971       4.96421997E-08
  0.916000009      -7.10195565E-08
  0.926999986      -1.02793379E-07
  0.938000023       1.91373282E-08
  0.949000001       2.17951435E-08
  0.959999979      -1.96067646E-07
  0.971000016      -2.51854345E-07
  0.981999993       2.23110099E-08
  0.992999971       2.58238572E-07
   1.00399995       2.05608615E-07
   1.01499999       8.19721802E-09
   1.02600002      -1.82806133E-07
   1.03699994      -2.72829965E-07
   1.04799998      -1.49554978E-07
   1.05900002       9.32043562E-08
   1.07000005       1.84249529E-07
   1.08099997       6.44655529E-08
   1.09200001      -6.00469079E-08
   1.10300004      -4.20651283E-08
   1.11399996       3.82165659E-08
   1.12500000       3.88672419E-08
   1.13600004      -2.53690438E-08
   1.14699996      -4.87061165E-08
   1.15799999      -3.63046624E-08
   1.16900003      -3.17854898E-08
   1.17999995       8.07686096E-09
   1.19099998       7.31855181E-08
   1.20200002       7.49800435E-08
   1.21300006       2.97162046E-08
   1.22399998      -6.32295505E-09
   1.23500001      -4.35723955E-08
   1.24600005      -2.86394641E-08
   1.25699997       7.53835749E-08
   1.26800001       1.14161587E-07
   1.27900004      -1.57767144E-09
   1.28999996      -1.16607772E-07
   1.30100000      -1.14214792E-07
   1.31200004      -2.54479442E-08
   1.32299995       9.23161423E-08
   1.33399999       1.08657595E-07
   1.34500003      -5.13290352E-08
   1.35599995      -1.68760423E-07
   1.36699998      -3.80076273E-08
   1.37800002       1.56117380E-07
   1.38900006       1.44087963E-07
