 -0.800000012       0.00000000
 -0.788999975       0.00000000
 -0.777999997       0.00000000
 -0.767000020      -3.24439975E-10
 -0.755999982       1.52881285E-09
 -0.745000005       1.02393294E-09
 -0.734000027      -1.11954401E-08
 -0.722999990       1.52080870E-09
 -0.712000012       4.06723295E-08
 -0.700999975      -1.55252504E-08
 -0.689999998      -8.79246116E-08
 -0.679000020       6.82235850E-08
 -0.667999983       1.36075968E-07
 -0.657000005      -2.06092864E-07
 -0.646000028      -1.90799057E-07
 -0.634999990       4.33206736E-07
 -0.624000013       3.09542600E-07
 -0.612999976      -5.65440700E-07
 -0.601999998      -3.98161745E-07
 -0.591000021       4.24761396E-07
 -0.579999983       1.96567399E-07
 -0.569000006      -1.97226399E-07
 -0.558000028       2.81048017E-07
 -0.546999991       3.06139782E-07
 -0.536000013      -3.25070630E-07
 -0.524999976      -3.40744919E-07
 -0.513999999      -5.14168690E-08
 -0.503000021       7.44986650E-08
 -0.492000014       2.09850114E-07
 -0.481000006      -3.68194151E-07
 -0.469999999      -6.04625882E-07
 -0.458999991       1.50739493E-06
 -0.448000014       2.71834642E-06
 -0.437000006      -5.19281798E-07
 -0.425999999      -3.72819864E-06
 -0.414999992      -2.94938536E-06
 -0.404000014      -1.90683181E-06
 -0.393000007      -2.36524079E-06
 -0.381999999      -2.18480000E-06
 -0.370999992      -3.61613252E-06
 -0.360000014      -8.12590588E-06
 -0.349000007      -1.09737066E-05
 -0.338000000      -1.15628100E-05
 -0.326999992      -1.54701174E-05
 -0.316000015      -2.39311903E-05
 -0.305000007      -3.48396643E-05
 -0.294000000      -4.78187103E-05
 -0.282999992      -6.10950228E-05
 -0.272000015      -7.52293781E-05
 -0.261000007      -9.76570154E-05
 -0.250000000      -1.31787863E-04
 -0.238999993      -1.72787870E-04
 -0.228000000      -2.20504284E-04
 -0.216999993      -2.80688546E-04
 -0.206000000      -3.55272583E-04
 -0.194999993      -4.46592079E-04
 -0.184000000      -5.62161906E-04
 -0.172999993      -7.05429527E-04
 -0.162000000      -8.74531805E-04
 -0.150999993      -1.07293110E-03
 -0.140000001      -1.30901847E-03
 -0.128999993      -1.58796436E-03
 -0.118000001      -1.91239978E-03
 -0.107000001      -2.28591776E-03
  -9.60000008E-02  -2.71195616E-03
  -8.50000009E-02  -3.19326017E-03
  -7.40000010E-02  -3.73224029E-03
  -6.30000010E-02  -4.33005439E-03
  -5.20000011E-02  -4.98711364E-03
  -4.10000011E-02  -5.70337148E-03
  -2.99999993E-02  -6.47558039E-03
  -1.89999994E-02  -7.29637593E-03
  -8.00000038E-03  -8.15803744E-03
   3.00000003E-03  -9.05477535E-03
   1.40000004E-02  -9.98007692E-03
   2.50000004E-02  -1.09252064E-02
   3.59999985E-02  -1.18825473E-02
   4.69999984E-02  -1.28475735E-02
   5.79999983E-02  -1.38168167E-02
   6.89999983E-02  -1.47900917E-02
   7.99999982E-02  -1.57779232E-02
   9.09999982E-02  -1.68030281E-02
  0.101999998      -1.78959817E-02
  0.112999998      -1.90967973E-02
  0.123999998      -2.04610545E-02
  0.135000005      -2.20608059E-02
  0.145999998      -2.39834376E-02
  0.157000005      -2.63341311E-02
  0.167999998      -2.92359181E-02
  0.179000005      -3.28232422E-02
  0.189999998      -3.72366719E-02
  0.201000005      -4.26225290E-02
  0.211999997      -4.91290763E-02
  0.223000005      -5.68950847E-02
  0.233999997      -6.60391524E-02
  0.245000005      -7.66528696E-02
  0.256000012      -8.87902081E-02
  0.266999990     -0.102453567
  0.277999997     -0.117584795
  0.289000005     -0.134056285
  0.300000012     -0.151657999
  0.310999990     -0.170091242
  0.321999997     -0.188970715
  0.333000004     -0.207823291
  0.344000012     -0.226086780
  0.354999989     -0.243118122
  0.365999997     -0.258207649
  0.377000004     -0.270597905
  0.388000011     -0.279510409
  0.398999989     -0.284170926
  0.409999996     -0.283832878
  0.421000004     -0.277811170
  0.432000011     -0.265520006
  0.442999989     -0.246502146
  0.453999996     -0.220459625
  0.465000004     -0.187287733
  0.476000011     -0.147093311
  0.486999989     -0.100202501
  0.497999996      -4.71731462E-02
  0.509000003       1.12015139E-02
  0.519999981       7.39102438E-02
  0.531000018      0.139746934
  0.541999996      0.207334831
  0.552999973      0.275165200
  0.564000010      0.341648877
  0.574999988      0.405166715
  0.586000025      0.464120179
  0.597000003      0.516987324
  0.607999980      0.562380493
  0.619000018      0.599096596
  0.629999995      0.626156628
  0.640999973      0.642841339
  0.652000010      0.648721457
  0.662999988      0.643671632
  0.674000025      0.627870917
  0.685000002      0.601795256
  0.695999980      0.566198528
  0.707000017      0.522078276
  0.717999995      0.470638096
  0.728999972      0.413245767
  0.740000010      0.351382226
  0.750999987      0.286584884
  0.762000024      0.220396027
  0.773000002      0.154314891
  0.783999979       8.97518620E-02
  0.795000017       2.79878732E-02
  0.805999994      -2.98586022E-02
  0.816999972      -8.28543603E-02
  0.828000009     -0.130266055
  0.838999987     -0.171569332
  0.850000024     -0.206447512
  0.861000001     -0.234779194
  0.871999979     -0.256624073
  0.883000016     -0.272206038
  0.893999994     -0.281886548
  0.904999971     -0.286135435
  0.916000009     -0.285507470
  0.926999986     -0.280616224
  0.938000023     -0.272104114
  0.949000001     -0.260618806
  0.959999979     -0.246796280
  0.971000016     -0.231243610
  0.981999993     -0.214522779
  0.992999971     -0.197139442
   1.00399995     -0.179538250
   1.01499999     -0.162101597
   1.02600002     -0.145146742
   1.03699994     -0.128923848
   1.04799998     -0.113622561
   1.05900002      -9.93805528E-02
   1.07000005      -8.62852633E-02
   1.08099997      -7.43778124E-02
   1.09200001      -6.36641905E-02
   1.10300004      -5.41221984E-02
   1.11399996      -4.57030796E-02
   1.12500000      -3.83390896E-02
   1.13600004      -3.19536179E-02
   1.14699996      -2.64632292E-02
   1.15799999      -2.17773039E-02
   1.16900003      -1.78039186E-02
   1.17999995      -1.44565953E-02
   1.19099998      -1.16548864E-02
   1.20200002      -9.32264421E-03
   1.21300006      -7.39003206E-03
   1.22399998      -5.79634542E-03
   1.23500001      -4.48878156E-03
   1.24600005      -3.42077692E-03
   1.25699997      -2.55362061E-03
   1.26800001      -1.85654289E-03
   1.27900004      -1.30348455E-03
   1.28999996      -8.71828699E-04
   1.30100000      -5.42723981E-04
   1.31200004      -2.99805717E-04
   1.32299995      -1.28917032E-04
   1.33399999      -1.85238914E-05
   1.34500003       4.22594276E-05
   1.35599995       6.41947918E-05
   1.36699998       5.61124252E-05
   1.37800002       2.64627379E-05
   1.38900006      -1.51113845E-05
