 -0.959999979       0.00000000
 -0.925000012      -2.45816068E-06
 -0.889999986      -2.77355557E-05
 -0.855000019      -6.90070592E-05
 -0.819999993      -1.00057361E-04
 -0.785000026      -2.12304818E-04
 -0.750000000      -5.41927759E-04
 -0.714999974      -1.12043309E-03
 -0.680000007      -2.08574673E-03
 -0.644999981      -3.83785809E-03
 -0.610000014      -6.78496156E-03
 -0.574999988      -1.12515474E-02
 -0.540000021      -1.75602939E-02
 -0.504999995      -2.56894957E-02
 -0.469999999      -3.48800011E-02
 -0.435000002      -4.35784422E-02
 -0.400000006      -4.91386168E-02
 -0.365000010      -4.76464257E-02
 -0.330000013      -3.50233838E-02
 -0.294999987      -8.82019941E-03
 -0.259999990       3.04275546E-02
 -0.224999994       7.78143331E-02
 -0.189999998      0.122908853
 -0.155000001      0.150769129
 -0.119999997      0.145246878
  -8.50000009E-02   9.27976966E-02
  -5.00000007E-02  -1.37201576E-02
  -1.49999997E-02 -0.171900108
   1.99999996E-02 -0.369693846
   5.49999997E-02 -0.588548899
   9.00000036E-02 -0.806457579
  0.125000000     -0.998884797
  0.159999996      -1.13780034
  0.194999993      -1.18885982
  0.230000004      -1.10905385
  0.264999986     -0.850735247
  0.300000012     -0.375394613
  0.335000008      0.325867921
  0.370000005       1.21190250
  0.405000001       2.18031073
  0.439999998       3.07551360
  0.474999994       3.71914530
  0.509999990       3.95428681
  0.545000017       3.68866849
  0.579999983       2.92190504
  0.615000010       1.74658489
  0.649999976      0.324283600
  0.685000002      -1.15085328
  0.720000029      -2.48659587
  0.754999995      -3.51738667
  0.790000021      -4.11893511
  0.824999988      -4.21817255
  0.860000014      -3.80524063
  0.894999981      -2.94663405
  0.930000007      -1.78897047
  0.964999974     -0.541631341
   1.00000000      0.565658391
   1.03499997       1.34215796
   1.07000005       1.69200611
   1.10500002       1.64151084
   1.13999999       1.32213962
   1.17499995      0.913562715
   1.21000004      0.570348263
   1.24500000      0.365020454
   1.27999997      0.274019241
   1.31500006      0.212225035
   1.35000002       9.62943509E-02
   1.38499999      -9.79573056E-02
   1.41999996     -0.315347075
   1.45500004     -0.449895203
   1.49000001     -0.407341838
   1.52499998     -0.166825131
   1.55999994      0.194090679
   1.59500003      0.527318895
   1.63000000      0.682977438
