 -0.800000012       0.00000000
 -0.788999975       0.00000000
 -0.777999997       0.00000000
 -0.767000020       1.55922180E-06
 -0.755999982      -5.96231166E-06
 -0.745000005      -3.74946503E-05
 -0.734000027       1.55634480E-04
 -0.722999990       7.34043033E-06
 -0.712000012      -6.48222165E-04
 -0.700999975       4.64937999E-04
 -0.689999998       1.37957477E-03
 -0.679000020      -1.80946442E-03
 -0.667999983      -1.65566592E-03
 -0.657000005       3.87346535E-03
 -0.646000028       5.81874512E-04
 -0.634999990      -5.19254617E-03
 -0.624000013       1.92205724E-03
 -0.612999976       2.81745917E-03
 -0.601999998      -4.71667387E-03
 -0.591000021       6.12748228E-03
 -0.579999983       6.43069809E-03
 -0.569000006      -2.06281431E-02
 -0.558000028      -5.89107582E-03
 -0.546999991       3.35041955E-02
 -0.536000013       1.15760660E-03
 -0.524999976      -3.60166132E-02
 -0.513999999       8.18869844E-03
 -0.503000021       2.46145763E-02
 -0.492000014      -1.61999222E-02
 -0.481000006       4.09458531E-04
 -0.469999999       1.73948035E-02
 -0.458999991      -3.31545025E-02
 -0.448000014      -1.81191247E-02
 -0.437000006       4.53524217E-02
 -0.425999999       5.19562932E-03
 -0.414999992      -3.77700031E-02
 -0.404000014       4.43302095E-03
 -0.393000007      -9.84745007E-03
 -0.381999999      -4.32286263E-02
 -0.370999992       2.03855801E-02
 -0.360000014       2.05937307E-02
 -0.349000007      -7.37302974E-02
 -0.338000000      -5.30671924E-02
 -0.326999992      -2.65878654E-04
 -0.316000015      -7.38866851E-02
 -0.305000007     -0.100812279
 -0.294000000      -5.04556522E-02
 -0.282999992     -0.127385318
 -0.272000015     -0.229521170
 -0.261000007     -0.196132347
 -0.250000000     -0.208853766
 -0.238999993     -0.341275841
 -0.228000000     -0.419922322
 -0.216999993     -0.469967306
 -0.206000000     -0.607357204
 -0.194999993     -0.751007080
 -0.184000000     -0.858594537
 -0.172999993      -1.02260017
 -0.162000000      -1.23882711
 -0.150999993      -1.43893886
 -0.140000001      -1.65207183
 -0.128999993      -1.92154312
 -0.118000001      -2.19561410
 -0.107000001      -2.43336797
  -9.60000008E-02  -2.69841623
  -8.50000009E-02  -3.00302362
  -7.40000010E-02  -3.24446487
  -6.30000010E-02  -3.43897915
  -5.20000011E-02  -3.66895485
  -4.10000011E-02  -3.80965972
  -2.99999993E-02  -3.78211999
  -1.89999994E-02  -3.74420500
  -8.00000038E-03  -3.65825057
   3.00000003E-03  -3.32797956
   1.40000004E-02  -2.84939814
   2.50000004E-02  -2.29616427
   3.59999985E-02  -1.48330939
   4.69999984E-02 -0.453298897
   5.79999983E-02  0.657047629
   6.89999983E-02   2.01558495
   7.99999982E-02   3.63342738
   9.09999982E-02   5.30434275
  0.101999998       7.13449669
  0.112999998       9.17571545
  0.123999998       11.1652536
  0.135000005       13.1499081
  0.145999998       15.2594357
  0.157000005       17.1769161
  0.167999998       18.7956886
  0.179000005       20.3389626
  0.189999998       21.5988884
  0.201000005       22.3257961
  0.211999997       22.7054749
  0.223000005       22.6657238
  0.233999997       21.9287281
  0.245000005       20.6424408
  0.256000012       18.8694572
  0.266999990       16.3780537
  0.277999997       13.2924566
  0.289000005       9.77228642
  0.300000012       5.61020660
  0.310999990      0.903985441
  0.321999997      -4.01151228
  0.333000004      -9.22847176
  0.344000012      -14.7574434
  0.354999989      -20.2056599
  0.365999997      -25.4828281
  0.377000004      -30.6985722
  0.388000011      -35.5440941
  0.398999989      -39.7169762
  0.409999996      -43.2850037
  0.421000004      -46.1613083
  0.432000011      -48.0351372
  0.442999989      -48.8502274
  0.453999996      -48.6894760
  0.465000004      -47.4145088
  0.476000011      -44.9022102
  0.486999989      -41.2989464
  0.497999996      -36.7021255
  0.509000003      -31.0290470
  0.519999981      -24.4338932
  0.531000018      -17.2506542
  0.541999996      -9.51760769
  0.552999973      -1.32139289
  0.564000010       6.86466074
  0.574999988       14.8378000
  0.586000025       22.6599655
  0.597000003       29.8928318
  0.607999980       36.1244965
  0.619000018       41.5344276
  0.629999995       45.9696465
  0.640999973       48.9280739
  0.652000010       50.5869255
  0.662999988       51.1727562
  0.674000025       50.2985268
  0.685000002       48.0228996
  0.695999980       44.8600540
  0.707000017       40.7099953
  0.717999995       35.5020638
  0.728999972       29.8081837
  0.740000010       23.8158951
  0.750999987       17.3832264
  0.762000024       10.9608393
  0.773000002       4.92893076
  0.783999979     -0.879864812
  0.795000017      -6.29228640
  0.805999994      -10.8899918
  0.816999972      -14.7769852
  0.828000009      -18.0572777
  0.838999987      -20.4478931
  0.850000024      -21.9521847
  0.861000001      -22.8348103
  0.871999979      -23.0436096
  0.883000016      -22.5023689
  0.893999994      -21.4550362
  0.904999971      -20.0667534
  0.916000009      -18.2859097
  0.926999986      -16.2138233
  0.938000023      -14.0785151
  0.949000001      -11.9088764
  0.959999979      -9.66825294
  0.971000016      -7.53087091
  0.981999993      -5.62354183
  0.992999971      -3.83516884
   1.00399995      -2.18329310
   1.01499999     -0.845199049
   1.02600002      0.254699826
   1.03699994       1.24754143
   1.04799998       1.98455048
   1.05900002       2.44193459
   1.07000005       2.83078766
   1.08099997       3.10224462
   1.09200001       3.12639928
   1.10300004       3.09139991
   1.11399996       3.07307577
   1.12500000       2.89273906
   1.13600004       2.63633347
   1.14699996       2.47860956
   1.15799999       2.26635695
   1.16900003       1.94540846
   1.17999995       1.73043692
   1.19099998       1.58151984
   1.20200002       1.32544386
   1.21300006       1.10004449
   1.22399998       1.00028324
   1.23500001      0.846678019
   1.24600005      0.647030592
   1.25699997      0.568437159
   1.26800001      0.513457358
   1.27900004      0.375724524
   1.28999996      0.300507456
   1.30100000      0.296590179
   1.31200004      0.213614285
   1.32299995      0.133772224
   1.33399999      0.154567510
   1.34500003      0.128929466
   1.35599995       4.77114320E-02
   1.36699998       6.66076615E-02
   1.37800002       9.41685215E-02
   1.38900006       2.07194053E-02
