 -0.959999979       0.00000000
 -0.925000012       4.44979650E-23
 -0.889999986      -2.48510359E-13
 -0.855000019       1.45479687E-14
 -0.819999993       2.43363793E-12
 -0.785000026       5.13008299E-12
 -0.750000000       2.94147380E-11
 -0.714999974       4.50411618E-11
 -0.680000007      -9.17287774E-11
 -0.644999981      -6.90897825E-11
 -0.610000014       9.49111276E-11
 -0.574999988      -2.17796600E-10
 -0.540000021      -9.42899425E-10
 -0.504999995      -7.97840349E-10
 -0.469999999       1.92789340E-09
 -0.435000002       4.16841672E-09
 -0.400000006       5.09071629E-09
 -0.365000010      -8.22628854E-10
 -0.330000013       7.03180358E-09
 -0.294999987      -9.03901398E-09
 -0.259999990      -3.25717942E-08
 -0.224999994       6.04920825E-09
 -0.189999998      -3.75742744E-08
 -0.155000001      -7.95216408E-08
 -0.119999997       6.21063450E-08
  -8.50000009E-02   2.09748194E-07
  -5.00000007E-02   6.72405349E-08
  -1.49999997E-02  -1.01681152E-07
   1.99999996E-02  -8.53261568E-08
   5.49999997E-02  -1.63133038E-07
   9.00000036E-02  -1.20314169E-07
  0.125000000       1.36891231E-07
  0.159999996       1.74152561E-07
  0.194999993      -8.95332963E-09
  0.230000004      -3.33490142E-08
  0.264999986       6.54166641E-08
  0.300000012      -1.78784035E-07
  0.335000008      -1.50711855E-07
  0.370000005       3.50585083E-07
  0.405000001       3.53912640E-07
  0.439999998      -3.87734502E-08
  0.474999994       4.11203196E-08
  0.509999990       1.19623593E-07
  0.545000017      -3.19590413E-07
  0.579999983      -1.38798498E-07
  0.615000010       3.15110867E-07
  0.649999976      -5.51964547E-07
  0.685000002      -1.06146558E-06
  0.720000029       2.54064986E-07
  0.754999995       2.12405098E-07
  0.790000021      -7.19432478E-07
  0.824999988       3.86615113E-07
  0.860000014       1.21167272E-06
  0.894999981       1.35498212E-07
  0.930000007      -3.82240870E-07
  0.964999974      -2.24315556E-07
   1.00000000      -4.47902153E-07
   1.03499997       2.45251243E-07
   1.07000005       8.32700437E-07
   1.10500002      -1.29387814E-07
   1.13999999      -3.15649658E-07
   1.17499995       5.55062798E-07
   1.21000004      -2.49555029E-07
   1.24500000      -1.29009470E-06
   1.27999997      -2.10603091E-08
   1.31500006       1.23226664E-06
   1.35000002       3.70954126E-07
   1.38499999      -5.81605036E-07
   1.41999996      -1.53609378E-07
   1.45500004       3.44029701E-07
   1.49000001       3.75233995E-08
   1.52499998      -1.72502183E-07
   1.55999994       2.32189493E-07
   1.59500003       2.88186499E-07
   1.63000000      -2.57393566E-07
