 -0.800000012       0.00000000
 -0.788999975       0.00000000
 -0.777999997       0.00000000
 -0.767000020      -4.64283204E-07
 -0.755999982      -7.91144600E-07
 -0.745000005       5.89821593E-06
 -0.734000027       3.48570779E-06
 -0.722999990      -2.31473186E-05
 -0.712000012      -8.77069567E-07
 -0.700999975       5.11269136E-05
 -0.689999998      -2.66275183E-05
 -0.679000020      -6.70381123E-05
 -0.667999983       9.76160081E-05
 -0.657000005       2.61895275E-05
 -0.646000028      -1.90403443E-04
 -0.634999990       1.43441328E-04
 -0.624000013       2.64700531E-04
 -0.612999976      -4.59122937E-04
 -0.601999998      -2.71769939E-04
 -0.591000021       7.87902740E-04
 -0.579999983       1.17746102E-04
 -0.569000006      -8.86282709E-04
 -0.558000028       3.73200135E-04
 -0.546999991       7.40993186E-04
 -0.536000013      -1.04805583E-03
 -0.524999976      -3.88813554E-04
 -0.513999999       1.49021961E-03
 -0.503000021      -1.96163412E-04
 -0.492000014      -1.39096449E-03
 -0.481000006       9.63487313E-04
 -0.469999999       8.73717479E-04
 -0.458999991      -1.29969802E-03
 -0.448000014       3.19399056E-04
 -0.437000006       1.36452483E-03
 -0.425999999      -1.43691315E-03
 -0.414999992      -7.63729389E-04
 -0.404000014       2.26189941E-03
 -0.393000007       5.65483897E-05
 -0.381999999      -1.47321110E-03
 -0.370999992       2.16996251E-03
 -0.360000014       1.50878588E-03
 -0.349000007      -2.39430577E-03
 -0.338000000       9.93855414E-04
 -0.326999992       4.77499934E-03
 -0.316000015       6.90972258E-04
 -0.305000007      -3.72052280E-04
 -0.294000000       4.74292459E-03
 -0.282999992       4.52830968E-03
 -0.272000015       2.37761857E-03
 -0.261000007       7.23315263E-03
 -0.250000000       1.03142336E-02
 -0.238999993       7.76358647E-03
 -0.228000000       1.08569413E-02
 -0.216999993       1.78841278E-02
 -0.206000000       1.95729136E-02
 -0.194999993       2.28744540E-02
 -0.184000000       3.20081338E-02
 -0.172999993       3.71309072E-02
 -0.162000000       4.08282466E-02
 -0.150999993       5.33299223E-02
 -0.140000001       6.65648282E-02
 -0.128999993       7.34324008E-02
 -0.118000001       8.53619054E-02
 -0.107000001      0.104088187
  -9.60000008E-02  0.117491536
  -8.50000009E-02  0.129466280
  -7.40000010E-02  0.149762571
  -6.30000010E-02  0.169009507
  -5.20000011E-02  0.179849923
  -4.10000011E-02  0.192570180
  -2.99999993E-02  0.208850339
  -1.89999994E-02  0.217073068
  -8.00000038E-03  0.217145890
   3.00000003E-03  0.214826718
   1.40000004E-02  0.203314573
   2.50000004E-02  0.176983923
   3.59999985E-02  0.140909806
   4.69999984E-02   9.28954184E-02
   5.79999983E-02   2.34883931E-02
   6.89999983E-02  -6.61697462E-02
   7.99999982E-02 -0.172920525
   9.09999982E-02 -0.304318696
  0.101999998     -0.462669820
  0.112999998     -0.640610278
  0.123999998     -0.840907216
  0.135000005      -1.06990957
  0.145999998      -1.31776965
  0.157000005      -1.57510579
  0.167999998      -1.84697402
  0.179000005      -2.12864614
  0.189999998      -2.40165234
  0.201000005      -2.66012430
  0.211999997      -2.90272641
  0.223000005      -3.11045337
  0.233999997      -3.26546192
  0.245000005      -3.36513782
  0.256000012      -3.39909935
  0.266999990      -3.34721327
  0.277999997      -3.20163274
  0.289000005      -2.95930409
  0.300000012      -2.60842991
  0.310999990      -2.14402509
  0.321999997      -1.57303357
  0.333000004     -0.898142457
  0.344000012     -0.121918984
  0.354999989      0.739804804
  0.365999997       1.66746843
  0.377000004       2.64513040
  0.388000011       3.64881754
  0.398999989       4.64647388
  0.409999996       5.61113596
  0.421000004       6.51750135
  0.432000011       7.33206081
  0.442999989       8.02180004
  0.453999996       8.56338120
  0.465000004       8.93531036
  0.476000011       9.11549282
  0.486999989       9.09154892
  0.497999996       8.85964966
  0.509000003       8.41635132
  0.519999981       7.76572609
  0.531000018       6.92565489
  0.541999996       5.91774511
  0.552999973       4.76447105
  0.564000010       3.49765778
  0.574999988       2.15417814
  0.586000025      0.768240929
  0.597000003     -0.622051358
  0.607999980      -1.97386551
  0.619000018      -3.25130749
  0.629999995      -4.42567253
  0.640999973      -5.46726084
  0.652000010      -6.34906149
  0.662999988      -7.05406141
  0.674000025      -7.57292366
  0.685000002      -7.89996767
  0.695999980      -8.03512287
  0.707000017      -7.98734426
  0.717999995      -7.77186966
  0.728999972      -7.40378571
  0.740000010      -6.90087509
  0.750999987      -6.29034901
  0.762000024      -5.60098743
  0.773000002      -4.85429335
  0.783999979      -4.07315540
  0.795000017      -3.28512359
  0.805999994      -2.51091552
  0.816999972      -1.76626635
  0.828000009      -1.07059550
  0.838999987     -0.437909156
  0.850000024      0.127473548
  0.861000001      0.618869364
  0.871999979       1.03001642
  0.883000016       1.36462665
  0.893999994       1.62547684
  0.904999971       1.81108117
  0.916000009       1.93092644
  0.926999986       1.99820781
  0.938000023       2.01313734
  0.949000001       1.97896373
  0.959999979       1.91327119
  0.971000016       1.82470286
  0.981999993       1.71025026
  0.992999971       1.58006477
   1.00399995       1.44866502
   1.01499999       1.31308126
   1.02600002       1.17144716
   1.03699994       1.03715789
   1.04799998      0.914729595
   1.05900002      0.796371996
   1.07000005      0.685768008
   1.08099997      0.590414822
   1.09200001      0.504385114
   1.10300004      0.424877405
   1.11399996      0.359060556
   1.12500000      0.304279715
   1.13600004      0.253221840
   1.14699996      0.210457101
   1.15799999      0.177511930
   1.16900003      0.146083817
   1.17999995      0.118323117
   1.19099998      0.100552082
   1.20200002       8.38871300E-02
   1.21300006       6.31378442E-02
   1.22399998       4.92992774E-02
   1.23500001       4.24371809E-02
   1.24600005       3.04018930E-02
   1.25699997       1.75250024E-02
   1.26800001       1.34185962E-02
   1.27900004       9.37621109E-03
   1.28999996      -3.25047120E-04
   1.30100000      -4.99244919E-03
   1.31200004      -3.84337525E-03
   1.32299995      -7.33496435E-03
   1.33399999      -1.23084178E-02
   1.34500003      -1.14606945E-02
   1.35599995      -1.07913632E-02
   1.36699998      -1.32228844E-02
   1.37800002      -1.21415257E-02
   1.38900006      -9.31612868E-03
