 -0.959999979       0.00000000
 -0.925000012      -8.92331736E-05
 -0.889999986      -1.04762102E-03
 -0.855000019      -1.16278185E-03
 -0.819999993      -8.51929537E-04
 -0.785000026      -4.32644272E-03
 -0.750000000      -1.11296894E-02
 -0.714999974      -1.83952898E-02
 -0.680000007      -3.09515782E-02
 -0.644999981      -5.54938801E-02
 -0.610000014      -9.13246572E-02
 -0.574999988     -0.135280550
 -0.540000021     -0.182965964
 -0.504999995     -0.220887959
 -0.469999999     -0.227671072
 -0.435000002     -0.179617673
 -0.400000006      -5.25458977E-02
 -0.365000010      0.161535934
 -0.330000013      0.421767563
 -0.294999987      0.619474590
 -0.259999990      0.584868848
 -0.224999994      0.118526340
 -0.189999998     -0.935439289
 -0.155000001      -2.57257414
 -0.119999997      -4.51277876
  -8.50000009E-02  -6.14565277
  -5.00000007E-02  -6.58815527
  -1.49999997E-02  -4.90106106
   1.99999996E-02 -0.458474368
   5.49999997E-02   6.63599396
   9.00000036E-02   15.2550354
  0.125000000       23.2493725
  0.159999996       27.8707123
  0.194999993       26.5977211
  0.230000004       18.1290607
  0.264999986       3.16490173
  0.300000012      -15.3911572
  0.335000008      -33.0272865
  0.370000005      -44.9334984
  0.405000001      -47.5866241
  0.439999998      -39.9906044
  0.474999994      -24.0719204
  0.509999990      -4.05684710
  0.545000017       14.9389200
  0.579999983       28.5436020
  0.615000010       34.3588562
  0.649999976       32.4033890
  0.685000002       24.7397709
  0.720000029       14.5284567
  0.754999995       4.90265083
  0.790000021      -1.95237410
  0.824999988      -5.27840519
  0.860000014      -5.70252609
  0.894999981      -4.72280979
  0.930000007      -3.91637206
  0.964999974      -4.19118834
   1.00000000      -5.40673113
   1.03499997      -6.54872513
   1.07000005      -6.39415121
   1.10500002      -4.32477760
   1.13999999     -0.819882572
   1.17499995       2.68592811
   1.21000004       4.53612852
   1.24500000       3.78392696
   1.27999997      0.784860432
   1.31500006      -2.91981554
   1.35000002      -5.38967752
   1.38499999      -5.30460358
   1.41999996      -2.64569306
   1.45500004       1.33205914
   1.49000001       4.79585791
   1.52499998       6.28733587
   1.55999994       5.39849567
   1.59500003       2.83537817
   1.63000000      -8.89780074E-02
