 -0.800000012       0.00000000
 -0.788999975       0.00000000
 -0.777999997      -1.47472692E-08
 -0.767000020       6.94914988E-08
 -0.755999982       6.12896827E-08
 -0.745000005      -5.78375136E-07
 -0.734000027       2.25852173E-08
 -0.722999990       2.35762582E-06
 -0.712000012      -7.74820762E-07
 -0.700999975      -5.84531563E-06
 -0.689999998       3.80676443E-06
 -0.679000020       1.01818450E-05
 -0.667999983      -1.24689295E-05
 -0.657000005      -1.48579556E-05
 -0.646000028       2.90590760E-05
 -0.634999990       2.27428045E-05
 -0.624000013      -4.53930661E-05
 -0.612999976      -3.21683729E-05
 -0.601999998       4.50091975E-05
 -0.591000021       2.70331093E-05
 -0.579999983      -2.82722085E-05
 -0.569000006       3.84007217E-06
 -0.558000028       2.28803456E-05
 -0.546999991      -2.75508555E-05
 -0.536000013      -2.94039419E-05
 -0.524999976       1.24387198E-05
 -0.513999999       1.88748309E-05
 -0.503000021       1.18760363E-05
 -0.492000014      -2.01225339E-05
 -0.481000006      -3.70220732E-05
 -0.469999999       8.52542435E-05
 -0.458999991       1.51044500E-04
 -0.448000014      -9.21221799E-05
 -0.437000006      -2.93024699E-04
 -0.425999999      -1.10458372E-04
 -0.414999992       8.27892727E-05
 -0.404000014       2.65517974E-05
 -0.393000007      -1.26354762E-05
 -0.381999999      -5.68610703E-05
 -0.370999992      -2.70047865E-04
 -0.360000014      -3.34427343E-04
 -0.349000007      -1.56228358E-04
 -0.338000000      -2.04400218E-04
 -0.326999992      -5.62191184E-04
 -0.316000015      -8.80402280E-04
 -0.305000007      -1.08580245E-03
 -0.294000000      -1.19347242E-03
 -0.282999992      -1.24594534E-03
 -0.272000015      -1.66184944E-03
 -0.261000007      -2.57080630E-03
 -0.250000000      -3.41509935E-03
 -0.238999993      -4.03264444E-03
 -0.228000000      -4.90454631E-03
 -0.216999993      -6.12571742E-03
 -0.206000000      -7.54102133E-03
 -0.194999993      -9.40414891E-03
 -0.184000000      -1.17654782E-02
 -0.172999993      -1.41986683E-02
 -0.162000000      -1.67044662E-02
 -0.150999993      -1.97491664E-02
 -0.140000001      -2.34105792E-02
 -0.128999993      -2.74267178E-02
 -0.118000001      -3.17254327E-02
 -0.107000001      -3.63433063E-02
  -9.60000008E-02  -4.12423983E-02
  -8.50000009E-02  -4.63764481E-02
  -7.40000010E-02  -5.16729206E-02
  -6.30000010E-02  -5.70401028E-02
  -5.20000011E-02  -6.24231510E-02
  -4.10000011E-02  -6.76568300E-02
  -2.99999993E-02  -7.24090561E-02
  -1.89999994E-02  -7.64760822E-02
  -8.00000038E-03  -7.99284354E-02
   3.00000003E-03  -8.28203261E-02
   1.40000004E-02  -8.50184560E-02
   2.50000004E-02  -8.64743367E-02
   3.59999985E-02  -8.73800144E-02
   4.69999984E-02  -8.79220217E-02
   5.79999983E-02  -8.82966965E-02
   6.89999983E-02  -8.91418159E-02
   7.99999982E-02  -9.14980024E-02
   9.09999982E-02  -9.62744430E-02
  0.101999998     -0.104260385
  0.112999998     -0.116595060
  0.123999998     -0.134730279
  0.135000005     -0.160108611
  0.145999998     -0.194239795
  0.157000005     -0.238747314
  0.167999998     -0.294959903
  0.179000005     -0.363672644
  0.189999998     -0.445423841
  0.201000005     -0.540563941
  0.211999997     -0.648752451
  0.223000005     -0.768639386
  0.233999997     -0.898079216
  0.245000005      -1.03413785
  0.256000012      -1.17276192
  0.266999990      -1.30884755
  0.277999997      -1.43648481
  0.289000005      -1.54877985
  0.300000012      -1.63795435
  0.310999990      -1.69603324
  0.321999997      -1.71509147
  0.333000004      -1.68709314
  0.344000012      -1.60431111
  0.354999989      -1.46003699
  0.365999997      -1.24907458
  0.377000004     -0.968305349
  0.388000011     -0.616963983
  0.398999989     -0.196484730
  0.409999996      0.289084792
  0.421000004      0.832411647
  0.432000011       1.42313087
  0.442999989       2.04818487
  0.453999996       2.69156432
  0.465000004       3.33484578
  0.476000011       3.95842719
  0.486999989       4.54182482
  0.497999996       5.06381559
  0.509000003       5.50378180
  0.519999981       5.84296417
  0.531000018       6.06475735
  0.541999996       6.15539026
  0.552999973       6.10518885
  0.564000010       5.90914917
  0.574999988       5.56686783
  0.586000025       5.08275318
  0.597000003       4.46638346
  0.607999980       3.73224735
  0.619000018       2.89891791
  0.629999995       1.98840213
  0.640999973       1.02567530
  0.652000010       3.77308540E-02
  0.662999988     -0.947759151
  0.674000025      -1.90346324
  0.685000002      -2.80327654
  0.695999980      -3.62349367
  0.707000017      -4.34365845
  0.717999995      -4.94693947
  0.728999972      -5.42073250
  0.740000010      -5.75732470
  0.750999987      -5.95391989
  0.762000024      -6.01226473
  0.773000002      -5.93835878
  0.783999979      -5.74212599
  0.795000017      -5.43683624
  0.805999994      -5.03828526
  0.816999972      -4.56397772
  0.828000009      -4.03250551
  0.838999987      -3.46280169
  0.850000024      -2.87317443
  0.861000001      -2.28074169
  0.871999979      -1.70121527
  0.883000016      -1.14830458
  0.893999994     -0.633167088
  0.904999971     -0.164587155
  0.916000009      0.250881046
  0.926999986      0.609245181
  0.938000023      0.908973217
  0.949000001       1.15036047
  0.959999979       1.33523428
  0.971000016       1.46696794
  0.981999993       1.55018878
  0.992999971       1.59021389
   1.00399995       1.59263277
   1.01499999       1.56325257
   1.02600002       1.50808656
   1.03699994       1.43291700
   1.04799998       1.34286523
   1.05900002       1.24259508
   1.07000005       1.13648856
   1.08099997       1.02823663
   1.09200001      0.920714974
   1.10300004      0.816413581
   1.11399996      0.717410445
   1.12500000      0.624974549
   1.13600004      0.539809167
   1.14699996      0.462553650
   1.15799999      0.393607169
   1.16900003      0.332769096
   1.17999995      0.279501647
   1.19099998      0.233352616
   1.20200002      0.193856016
   1.21300006      0.160294205
   1.22399998      0.131879687
   1.23500001      0.107979372
   1.24600005       8.79599750E-02
   1.25699997       7.10992590E-02
   1.26800001       5.68206720E-02
   1.27900004       4.47575636E-02
   1.28999996       3.45829017E-02
   1.30100000       2.60069724E-02
   1.31200004       1.88128632E-02
   1.32299995       1.27842780E-02
   1.33399999       7.77607644E-03
   1.34500003       3.75548680E-03
   1.35599995       6.31123723E-04
   1.36699998      -1.70967553E-03
   1.37800002      -3.23892548E-03
   1.38900006      -3.98711208E-03
