 -0.959999979       0.00000000
 -0.925000012      -1.18841979E-06
 -0.889999986      -1.24819317E-05
 -0.855000019       4.90196226E-06
 -0.819999993      -1.44862497E-05
 -0.785000026      -5.94254670E-05
 -0.750000000      -6.74796611E-05
 -0.714999974      -2.02410403E-04
 -0.680000007      -3.02691420E-04
 -0.644999981      -2.14543965E-04
 -0.610000014      -7.01389217E-04
 -0.574999988      -1.64846692E-03
 -0.540000021      -1.64267316E-03
 -0.504999995      -1.36559410E-03
 -0.469999999      -2.23535905E-03
 -0.435000002      -2.40133237E-03
 -0.400000006      -8.98331462E-04
 -0.365000010      -9.08394810E-04
 -0.330000013      -4.20328695E-03
 -0.294999987      -1.24337869E-02
 -0.259999990      -3.51001099E-02
 -0.224999994      -8.54998007E-02
 -0.189999998     -0.173966110
 -0.155000001     -0.311877131
 -0.119999997     -0.506936669
  -8.50000009E-02 -0.744902313
  -5.00000007E-02 -0.982805490
  -1.49999997E-02  -1.15223897
   1.99999996E-02  -1.15844989
   5.49999997E-02 -0.894923151
   9.00000036E-02 -0.283510000
  0.125000000      0.687993288
  0.159999996       1.94381356
  0.194999993       3.30798769
  0.230000004       4.52056503
  0.264999986       5.29594803
  0.300000012       5.39330339
  0.335000008       4.67231512
  0.370000005       3.13340974
  0.405000001      0.928084731
  0.439999998      -1.67334068
  0.474999994      -4.33436680
  0.509999990      -6.70152092
  0.545000017      -8.45223618
  0.579999983      -9.33928490
  0.615000010      -9.21669388
  0.649999976      -8.05053329
  0.685000002      -5.92402887
  0.720000029      -3.03407073
  0.754999995      0.323041946
  0.790000021       3.77063131
  0.824999988       6.87748861
  0.860000014       9.19986916
  0.894999981       10.3497372
  0.930000007       10.0855799
  0.964999974       8.40073681
   1.00000000       5.57128477
   1.03499997       2.13315654
   1.07000005      -1.22935963
   1.10500002      -3.86739159
   1.13999999      -5.35374832
   1.17499995      -5.59465790
   1.21000004      -4.82616329
   1.24500000      -3.49597931
   1.27999997      -2.07975554
   1.31500006     -0.917434990
   1.35000002     -0.141517133
   1.38499999      0.289518297
   1.41999996      0.492722452
   1.45500004      0.562188745
   1.49000001      0.525556386
   1.52499998      0.370049268
   1.55999994      0.108143412
   1.59500003     -0.173828155
   1.63000000     -0.329274625
