 -0.959999979       0.00000000
 -0.925000012       3.58331818E-08
 -0.889999986       3.69245527E-07
 -0.855000019       1.62208130E-06
 -0.819999993       4.11819792E-06
 -0.785000026       6.86675276E-06
 -0.750000000       1.07858650E-05
 -0.714999974       2.49234436E-05
 -0.680000007       6.03382032E-05
 -0.644999981       1.16289055E-04
 -0.610000014       1.91578380E-04
 -0.574999988       3.07888462E-04
 -0.540000021       4.91036451E-04
 -0.504999995       7.32501561E-04
 -0.469999999       9.95203271E-04
 -0.435000002       1.23009726E-03
 -0.400000006       1.35419611E-03
 -0.365000010       1.24724337E-03
 -0.330000013       7.96924927E-04
 -0.294999987      -7.11711400E-05
 -0.259999990      -1.37117575E-03
 -0.224999994      -2.99385213E-03
 -0.189999998      -4.67868708E-03
 -0.155000001      -6.07047416E-03
 -0.119999997      -6.73378864E-03
  -8.50000009E-02  -6.05642982E-03
  -5.00000007E-02  -3.14777275E-03
  -1.49999997E-02   3.18219606E-03
   1.99999996E-02   1.42452735E-02
   5.49999997E-02   3.07720769E-02
   9.00000036E-02   5.14451675E-02
  0.125000000       7.09409937E-02
  0.159999996       7.82558918E-02
  0.194999993       5.64331077E-02
  0.230000004      -1.50761763E-02
  0.264999986     -0.154754534
  0.300000012     -0.370743692
  0.335000008     -0.652087986
  0.370000005     -0.962592483
  0.405000001      -1.24050915
  0.439999998      -1.40612876
  0.474999994      -1.37710547
  0.509999990      -1.08889890
  0.545000017     -0.515793860
  0.579999983      0.313123703
  0.615000010       1.30831516
  0.649999976       2.32769012
  0.685000002       3.19827366
  0.720000029       3.74857163
  0.754999995       3.84526372
  0.790000021       3.42551041
  0.824999988       2.51627874
  0.860000014       1.23490489
  0.894999981     -0.230499223
  0.930000007      -1.65709913
  0.964999974      -2.83139873
   1.00000000      -3.59036899
   1.03499997      -3.84988260
   1.07000005      -3.61477113
   1.10500002      -2.96986437
   1.13999999      -2.05603027
   1.17499995      -1.03844535
   1.21000004      -7.50255212E-02
   1.24500000      0.708876371
   1.27999997       1.23619390
   1.31500006       1.48331141
   1.35000002       1.47530866
   1.38499999       1.27326870
   1.41999996      0.956798077
   1.45500004      0.605704784
   1.49000001      0.284917802
   1.52499998       3.58304419E-02
   1.55999994     -0.124875546
   1.59500003     -0.200569943
   1.63000000     -0.207643956
