 -0.959999979       0.00000000
 -0.925000012      -1.40466320E-04
 -0.889999986      -1.30395626E-03
 -0.855000019      -1.05441560E-03
 -0.819999993      -7.19887146E-04
 -0.785000026      -5.69425337E-03
 -0.750000000      -1.31413415E-02
 -0.714999974      -1.99161079E-02
 -0.680000007      -3.52446623E-02
 -0.644999981      -6.48759976E-02
 -0.610000014     -0.103529930
 -0.574999988     -0.151703522
 -0.540000021     -0.208796293
 -0.504999995     -0.255729496
 -0.469999999     -0.269442260
 -0.435000002     -0.227611572
 -0.400000006      -9.01126266E-02
 -0.365000010      0.175380901
 -0.330000013      0.545935750
 -0.294999987      0.951388955
 -0.259999990       1.29133987
 -0.224999994       1.41647589
 -0.189999998       1.16035414
 -0.155000001      0.431661665
 -0.119999997     -0.747219205
  -8.50000009E-02  -2.24987674
  -5.00000007E-02  -3.83685803
  -1.49999997E-02  -5.20199728
   1.99999996E-02  -6.10050344
   5.49999997E-02  -6.40550041
   9.00000036E-02  -6.04642296
  0.125000000      -4.94941902
  0.159999996      -2.98860741
  0.194999993       7.09216073E-02
  0.230000004       4.48942614
  0.264999986       10.2716370
  0.300000012       16.8906841
  0.335000008       23.1814594
  0.370000005       27.4490929
  0.405000001       27.8885098
  0.439999998       23.2659435
  0.474999994       13.5130243
  0.509999990      -7.63529241E-02
  0.545000017      -15.1018324
  0.579999983      -28.7132244
  0.615000010      -38.4479141
  0.649999976      -42.8264351
  0.685000002      -41.4670982
  0.720000029      -34.8610573
  0.754999995      -24.0412750
  0.790000021      -10.3329296
  0.824999988       4.66221666
  0.860000014       18.9338837
  0.894999981       30.1293507
  0.930000007       36.0228577
  0.964999974       35.2536659
   1.00000000       28.0200272
   1.03499997       16.3513737
   1.07000005       3.63994837
   1.10500002      -6.52538824
   1.13999999      -11.7243938
   1.17499995      -11.6228638
   1.21000004      -7.98939085
   1.24500000      -3.74362779
   1.27999997      -1.45644045
   1.31500006      -2.07465696
   1.35000002      -4.54995346
   1.38499999      -6.55014086
   1.41999996      -5.87213182
   1.45500004      -1.81633174
   1.49000001       4.24795151
   1.52499998       9.49586010
   1.55999994       11.1279001
   1.59500003       7.91371202
   1.63000000      0.981060743
