 -0.959999979       0.00000000
 -0.925000012      -5.23820085E-35
 -0.889999986      -1.04764017E-34
 -0.855000019      -2.22222241E-12
 -0.819999993      -4.44444481E-12
 -0.785000026       8.88888876E-12
 -0.750000000       3.99999998E-11
 -0.714999974       4.44444568E-12
 -0.680000007      -1.20000010E-10
 -0.644999981      -4.88888999E-11
 -0.610000014       3.77777781E-10
 -0.574999988      -1.91111113E-10
 -0.540000021      -2.46666665E-09
 -0.504999995       6.62222555E-10
 -0.469999999       2.93777802E-09
 -0.435000002       4.07555589E-09
 -0.400000006       2.93777824E-09
 -0.365000010       5.21333376E-09
 -0.330000013       6.62221611E-10
 -0.294999987      -3.34711139E-08
 -0.259999990      -4.94000041E-08
 -0.224999994      -3.88888965E-09
 -0.189999998       1.38333334E-07
 -0.155000001       1.20128874E-07
 -0.119999997      -2.83782242E-07
  -8.50000009E-02  -2.47373350E-07
  -5.00000007E-02   2.53248913E-07
  -1.49999997E-02   4.38978098E-08
   1.99999996E-02  -1.61328984E-09
   5.49999997E-02   4.85355599E-07
   9.00000036E-02  -1.61329616E-09
  0.125000000      -4.56724422E-07
  0.159999996       2.76573388E-07
  0.194999993       3.13822532E-08
  0.230000004      -1.01082219E-06
  0.264999986       2.72591222E-07
  0.300000012       1.65612903E-06
  0.335000008      -8.23954736E-08
  0.370000005      -1.13483998E-06
  0.405000001       9.62356381E-08
  0.439999998      -2.78093268E-07
  0.474999994      -8.42431064E-07
  0.509999990       8.46031242E-07
  0.545000017       5.59311331E-07
  0.579999983      -1.18035098E-06
  0.615000010       4.29746905E-07
  0.649999976       1.26956911E-06
  0.685000002       1.29515712E-07
  0.720000029       2.79702391E-07
  0.754999995      -4.21168778E-07
  0.790000021      -1.81380892E-06
  0.824999988      -3.34697830E-07
  0.860000014       1.87145338E-06
  0.894999981      -4.41649036E-07
  0.930000007      -2.41683142E-06
  0.964999974       6.73373279E-07
   1.00000000       2.11607562E-06
   1.03499997      -4.46200119E-07
   1.07000005      -2.92031302E-07
   1.10500002       1.28891099E-06
   1.13999999      -8.02324735E-07
   1.17499995      -1.64143580E-06
   1.21000004       7.14887420E-08
   1.24500000      -3.50626891E-07
   1.27999997       2.30777587E-07
   1.31500006       3.05701769E-06
   1.35000002       1.56084002E-06
   1.38499999      -2.04591561E-06
   1.41999996      -1.09018231E-06
   1.45500004       5.49774892E-09
   1.49000001      -1.54415568E-06
   1.52499998      -2.89186687E-07
   1.55999994       1.91355116E-06
   1.59500003       9.31066495E-08
   1.63000000      -8.96262293E-07
