 -0.959999979       0.00000000
 -0.925000012      -6.51071728E-20
 -0.889999986       1.42005912E-11
 -0.855000019      -2.12187854E-11
 -0.819999993      -1.66411052E-10
 -0.785000026       1.99939787E-10
 -0.750000000      -9.08484676E-10
 -0.714999974       3.04018632E-09
 -0.680000007      -7.87923504E-09
 -0.644999981       6.15954487E-09
 -0.610000014      -5.34441735E-09
 -0.574999988      -1.80944104E-09
 -0.540000021       1.18903225E-08
 -0.504999995      -2.67266043E-10
 -0.469999999       1.03548942E-07
 -0.435000002      -5.01451268E-07
 -0.400000006       1.42077923E-07
 -0.365000010       1.47525395E-06
 -0.330000013      -9.63556658E-07
 -0.294999987      -3.89074216E-07
 -0.259999990      -9.81360927E-07
 -0.224999994       3.01736804E-06
 -0.189999998      -3.56883515E-06
 -0.155000001      -1.74680679E-06
 -0.119999997       6.68282519E-06
  -8.50000009E-02  -4.11959218E-06
  -5.00000007E-02  -1.40322743E-06
  -1.49999997E-02   3.99003238E-06
   1.99999996E-02  -3.07591154E-06
   5.49999997E-02   1.09775158E-06
   9.00000036E-02   1.71945192E-06
  0.125000000       3.69539362E-06
  0.159999996       5.03388264E-06
  0.194999993      -1.15814273E-05
  0.230000004      -1.29210093E-05
  0.264999986       9.84820690E-06
  0.300000012       9.87369367E-06
  0.335000008      -1.09515740E-05
  0.370000005      -2.27004534E-06
  0.405000001       1.06780508E-05
  0.439999998       6.00933390E-07
  0.474999994      -6.93570200E-06
  0.509999990       2.13960193E-05
  0.545000017       1.33880098E-06
  0.579999983      -1.86561429E-05
  0.615000010      -3.53286714E-06
  0.649999976      -4.40664780E-06
  0.685000002      -7.08466860E-06
  0.720000029      -1.39384310E-05
  0.754999995       1.54878653E-05
  0.790000021       5.22946575E-05
  0.824999988      -5.05357784E-05
  0.860000014      -3.21379775E-05
  0.894999981       7.53710265E-05
  0.930000007       2.96933522E-05
  0.964999974      -8.76024715E-05
   1.00000000      -1.98157486E-05
   1.03499997       8.49952994E-05
   1.07000005      -2.48558881E-05
   1.10500002      -7.34123969E-05
   1.13999999       5.75342783E-05
   1.17499995       4.81531861E-05
   1.21000004      -6.47883935E-05
   1.24500000      -1.56014667E-05
   1.27999997       7.54066859E-05
   1.31500006      -6.45228374E-06
   1.35000002      -7.52673295E-05
   1.38499999       1.59804003E-05
   1.41999996       6.43045350E-05
   1.45500004      -2.20304410E-05
   1.49000001      -5.43329879E-05
   1.52499998       3.11397889E-05
   1.55999994       4.80139497E-05
   1.59500003      -3.60141748E-05
   1.63000000      -4.29803913E-05
