 -0.800000012       0.00000000
 -0.788999975       0.00000000
 -0.777999997       0.00000000
 -0.767000020       1.83867576E-14
 -0.755999982      -2.13155570E-14
 -0.745000005      -1.56507362E-13
 -0.734000027      -1.37435514E-13
 -0.722999990       1.54291700E-13
 -0.712000012      -1.04854786E-12
 -0.700999975       4.00138744E-13
 -0.689999998       2.61818952E-12
 -0.679000020      -4.28974835E-13
 -0.667999983      -3.50891365E-12
 -0.657000005      -1.12812685E-11
 -0.646000028       7.62974493E-12
 -0.634999990       3.12184376E-11
 -0.624000013       4.50292798E-12
 -0.612999976      -2.67840177E-11
 -0.601999998      -5.23073043E-11
 -0.591000021      -1.40961791E-11
 -0.579999983       1.19971116E-10
 -0.569000006      -1.62453419E-11
 -0.558000028      -1.79162851E-10
 -0.546999991       2.21044016E-10
 -0.536000013       2.39380071E-10
 -0.524999976      -5.20512244E-10
 -0.513999999      -2.82867701E-10
 -0.503000021       8.16273604E-10
 -0.492000014       8.15847390E-11
 -0.481000006      -1.01720155E-09
 -0.469999999      -6.20308027E-10
 -0.458999991       1.16768584E-09
 -0.448000014       4.02401978E-09
 -0.437000006      -1.26062338E-09
 -0.425999999      -1.01772617E-08
 -0.414999992       5.71800107E-10
 -0.404000014       1.51121089E-08
 -0.393000007       1.32031025E-10
 -0.381999999      -1.61825753E-08
 -0.370999992      -6.01558847E-09
 -0.360000014       1.38903484E-08
 -0.349000007       3.69994630E-08
 -0.338000000       1.81815529E-09
 -0.326999992      -1.01101271E-07
 -0.316000015      -5.37775904E-08
 -0.305000007       1.64135884E-07
 -0.294000000       1.46165220E-07
 -0.282999992      -1.71057081E-07
 -0.272000015      -2.64055160E-07
 -0.261000007       8.24831758E-08
 -0.250000000       3.84276547E-07
 -0.238999993       1.24015841E-07
 -0.228000000      -4.02412525E-07
 -0.216999993      -3.99051856E-07
 -0.206000000       1.66551786E-07
 -0.194999993       5.61496620E-07
 -0.184000000       2.33965650E-07
 -0.172999993      -6.09737526E-07
 -0.162000000      -6.67450593E-07
 -0.150999993       5.62112177E-07
 -0.140000001       9.40831285E-07
 -0.128999993      -5.93821028E-07
 -0.118000001      -1.12709745E-06
 -0.107000001       6.25753671E-07
  -9.60000008E-02   1.26063173E-06
  -8.50000009E-02  -3.71211058E-07
  -7.40000010E-02  -1.04265484E-06
  -6.30000010E-02  -3.81009491E-09
  -5.20000011E-02   4.14190339E-07
  -4.10000011E-02   1.08570092E-07
  -2.99999993E-02   2.38334025E-07
  -1.89999994E-02   3.48161215E-08
  -8.00000038E-03  -7.18945842E-07
   3.00000003E-03  -2.71532883E-07
   1.40000004E-02   9.09316952E-07
   2.50000004E-02   2.86157814E-07
   3.59999985E-02  -1.47975379E-06
   4.69999984E-02  -8.43788769E-07
   5.79999983E-02   2.13371027E-06
   6.89999983E-02   2.56652675E-06
   7.99999982E-02  -1.39300744E-06
   9.09999982E-02  -4.45178330E-06
  0.101999998      -1.55534292E-06
  0.112999998       4.00471254E-06
  0.123999998       4.01672605E-06
  0.135000005      -2.36422238E-06
  0.145999998      -4.53298071E-06
  0.157000005       1.35470646E-06
  0.167999998       4.15614295E-06
  0.179000005      -2.87753181E-07
  0.189999998      -3.44572913E-06
  0.201000005      -1.14904196E-06
  0.211999997       3.11894178E-06
  0.223000005       3.39030407E-06
  0.233999997      -2.05949209E-06
  0.245000005      -6.13108114E-06
  0.256000012      -2.64131791E-06
  0.266999990       4.62801700E-06
  0.277999997       7.74954060E-06
  0.289000005       2.07840367E-06
  0.300000012      -8.78806804E-06
  0.310999990      -1.04431183E-05
  0.321999997       3.89058505E-06
  0.333000004       1.42024246E-05
  0.344000012       5.08936091E-06
  0.354999989      -5.36718471E-06
  0.365999997      -3.97175791E-06
  0.377000004      -3.11065651E-06
  0.388000011      -4.89390141E-06
  0.398999989       1.54267616E-06
  0.409999996       9.94137736E-06
  0.421000004       6.40716553E-06
  0.432000011      -6.68660596E-06
  0.442999989      -1.23835489E-05
  0.453999996      -5.88792318E-07
  0.465000004       1.11361132E-05
  0.476000011       1.78989899E-06
  0.486999989      -1.12136750E-05
  0.497999996      -2.72408215E-06
  0.509000003       1.05799909E-05
  0.519999981       5.50253435E-06
  0.531000018      -7.75143144E-06
  0.541999996      -8.65604852E-06
  0.552999973       4.27890336E-06
  0.564000010       1.56761162E-05
  0.574999988       1.09325474E-05
  0.586000025      -7.63706248E-06
  0.597000003      -2.20138081E-05
  0.607999980      -1.88785616E-05
  0.619000018       2.46944660E-06
  0.629999995       2.49129971E-05
  0.640999973       2.03183390E-05
  0.652000010      -7.34924106E-06
  0.662999988      -2.01726270E-05
  0.674000025      -9.09764094E-06
  0.685000002       3.87944056E-06
  0.695999980       1.04866840E-05
  0.707000017       9.91542947E-06
  0.717999995       2.28347858E-06
  0.728999972      -2.98056943E-06
  0.740000010      -2.06075424E-06
  0.750999987      -2.64215419E-06
  0.762000024      -5.04595846E-06
  0.773000002      -6.03617536E-06
  0.783999979      -6.36695495E-06
  0.795000017       3.44856380E-06
  0.805999994       2.04513144E-05
  0.816999972       1.82083568E-05
  0.828000009      -6.11670703E-06
  0.838999987      -2.45694300E-05
  0.850000024      -2.03036998E-05
  0.861000001       2.66502911E-06
  0.871999979       2.18719379E-05
  0.883000016       1.21850571E-05
  0.893999994      -7.12033989E-06
  0.904999971      -3.72575528E-06
  0.916000009       1.10430994E-06
  0.926999986      -9.92017704E-06
  0.938000023      -5.94334779E-06
  0.949000001       1.19495171E-05
  0.959999979       8.21518279E-06
  0.971000016      -7.52235428E-06
  0.981999993      -8.52761877E-06
  0.992999971      -1.48997788E-06
   1.00399995       6.47607840E-06
   1.01499999       1.18461639E-05
   1.02600002       1.75710545E-06
   1.03699994      -1.06777097E-05
   1.04799998      -3.38697419E-06
   1.05900002       6.55185841E-06
   1.07000005      -5.72376337E-07
   1.08099997      -9.94823586E-06
   1.09200001      -6.68557868E-06
   1.10300004       6.28088355E-06
   1.11399996       1.51423310E-05
   1.12500000       3.92816264E-06
   1.13600004      -1.20890254E-05
   1.14699996      -4.96992743E-06
   1.15799999       5.98459383E-06
   1.16900003      -2.92126265E-06
   1.17999995      -5.22809796E-06
   1.19099998       8.01974329E-06
   1.20200002       6.71637645E-06
   1.21300006      -3.67116900E-06
   1.22399998      -1.21226253E-06
   1.23500001      -9.08231016E-07
   1.24600005      -7.04567356E-06
   1.25699997      -2.32743105E-07
   1.26800001       9.22345589E-06
   1.27900004       4.37794370E-06
   1.28999996      -2.78137782E-06
   1.30100000      -6.12914937E-06
   1.31200004      -7.90245122E-06
   1.32299995       1.74973729E-06
   1.33399999       1.41133787E-05
   1.34500003       7.04265995E-06
   1.35599995      -7.27009592E-06
   1.36699998      -6.85479745E-06
   1.37800002      -1.26019586E-06
   1.38900006      -1.08562006E-06
