 -0.800000012       0.00000000
 -0.788999975       0.00000000
 -0.777999997      -2.61284216E-10
 -0.767000020      -7.18531623E-10
 -0.755999982      -9.64414548E-10
 -0.745000005       1.40259795E-08
 -0.734000027      -2.35471802E-08
 -0.722999990       1.10890381E-08
 -0.712000012      -1.23518251E-09
 -0.700999975       1.47294088E-08
 -0.689999998       2.33242492E-08
 -0.679000020      -9.88494406E-08
 -0.667999983       7.00974141E-08
 -0.657000005      -3.98617388E-08
 -0.646000028       1.21407126E-07
 -0.634999990      -9.57271880E-08
 -0.624000013      -1.90781350E-07
 -0.612999976       4.77528545E-07
 -0.601999998      -2.06810249E-08
 -0.591000021      -5.43348676E-07
 -0.579999983      -4.00014017E-07
 -0.569000006       2.21848813E-06
 -0.558000028      -2.26072461E-06
 -0.546999991      -9.67178835E-07
 -0.536000013       4.99263160E-06
 -0.524999976      -5.85250427E-06
 -0.513999999       3.14998829E-06
 -0.503000021       4.49736717E-06
 -0.492000014      -1.53198434E-05
 -0.481000006       1.47497285E-05
 -0.469999999       2.29230182E-06
 -0.458999991      -2.30448713E-05
 -0.448000014       3.64070875E-05
 -0.437000006      -1.72215423E-05
 -0.425999999      -4.15220893E-05
 -0.414999992       7.89904079E-05
 -0.404000014      -4.64649092E-05
 -0.393000007      -2.60961988E-05
 -0.381999999       3.66403692E-05
 -0.370999992       3.84015948E-05
 -0.360000014      -7.38190283E-05
 -0.349000007       4.08499291E-05
 -0.338000000       1.50717769E-05
 -0.326999992      -8.23502560E-05
 -0.316000015       1.86591169E-05
 -0.305000007       1.54347770E-04
 -0.294000000      -1.17679250E-04
 -0.282999992      -2.78733096E-05
 -0.272000015       1.09126595E-04
 -0.261000007      -3.04216839E-04
 -0.250000000       1.91681480E-04
 -0.238999993       3.25993693E-04
 -0.228000000      -3.94114904E-04
 -0.216999993      -1.00903118E-04
 -0.206000000       5.14216023E-04
 -0.194999993      -2.15893800E-04
 -0.184000000      -6.02579850E-04
 -0.172999993       7.44339544E-04
 -0.162000000       1.19815486E-04
 -0.150999993      -1.00102089E-03
 -0.140000001       3.69305490E-04
 -0.128999993       1.37106620E-03
 -0.118000001      -9.25239932E-04
 -0.107000001      -9.63166647E-04
  -9.60000008E-02   1.33787212E-03
  -8.50000009E-02  -6.96713338E-04
  -7.40000010E-02  -1.18645071E-03
  -6.30000010E-02   2.31788773E-03
  -5.20000011E-02   3.03349225E-04
  -4.10000011E-02  -2.46494729E-03
  -2.99999993E-02   3.11108190E-04
  -1.89999994E-02   1.54571328E-03
  -8.00000038E-03  -1.32789358E-03
   3.00000003E-03   1.50019478E-03
   1.40000004E-02   1.05390104E-03
   2.50000004E-02  -3.06740613E-03
   3.59999985E-02  -7.14725757E-04
   4.69999984E-02   2.47251499E-03
   5.79999983E-02  -3.14120145E-04
   6.89999983E-02  -1.38030120E-03
   7.99999982E-02   3.05831153E-03
   9.09999982E-02  -4.52183798E-04
  0.101999998      -3.15896957E-03
  0.112999998       4.29624895E-04
  0.123999998       1.18775119E-03
  0.135000005      -6.46112385E-05
  0.145999998       2.87791336E-04
  0.157000005       7.41100084E-05
  0.167999998       5.50938945E-04
  0.179000005       8.66989489E-04
  0.189999998      -2.24174582E-03
  0.201000005      -2.41024862E-03
  0.211999997       3.59641574E-03
  0.223000005       1.29759638E-03
  0.233999997      -4.43428615E-03
  0.245000005       1.76094717E-03
  0.256000012       4.50747926E-03
  0.266999990      -3.24514695E-03
  0.277999997      -2.81334622E-03
  0.289000005       2.76710629E-03
  0.300000012      -5.53734833E-04
  0.310999990      -2.12878804E-03
  0.321999997       2.24772724E-03
  0.333000004       2.38543306E-03
  0.344000012      -2.06474331E-03
  0.354999989      -1.06836029E-03
  0.365999997       1.71307882E-03
  0.377000004      -2.77893356E-04
  0.388000011      -1.99352810E-03
  0.398999989      -5.19090507E-04
  0.409999996       1.33561238E-03
  0.421000004       2.00873381E-03
  0.432000011       1.78127593E-04
  0.442999989      -1.90945505E-03
  0.453999996      -9.92579269E-04
  0.465000004       1.29010808E-03
  0.476000011      -8.27370313E-05
  0.486999989      -1.20527879E-03
  0.497999996       9.14426113E-04
  0.509000003       1.86531618E-03
  0.519999981      -4.38075280E-04
  0.531000018      -2.80357758E-03
  0.541999996       5.07232849E-04
  0.552999973       2.69874535E-03
  0.564000010      -7.63526885E-04
  0.574999988      -2.53968942E-03
  0.586000025       1.91237475E-03
  0.597000003       2.08614487E-03
  0.607999980      -3.29144462E-03
  0.619000018      -1.44514546E-03
  0.629999995       3.37820337E-03
  0.640999973       7.91993109E-04
  0.652000010      -2.11394159E-03
  0.662999988      -3.88447457E-04
  0.674000025      -7.71216094E-07
  0.685000002       7.75753055E-04
  0.695999980       2.23612040E-03
  0.707000017      -1.49482675E-03
  0.717999995      -3.47660761E-03
  0.728999972       2.23010709E-03
  0.740000010       2.78018531E-03
  0.750999987      -2.85095512E-03
  0.762000024      -1.15848170E-03
  0.773000002       3.02756019E-03
  0.783999979       4.26070837E-05
  0.795000017      -2.24304642E-03
  0.805999994       3.19005456E-04
  0.816999972       1.17461639E-03
  0.828000009      -1.04239580E-05
  0.838999987      -4.85319499E-04
  0.850000024      -5.15514635E-04
  0.861000001       1.79748735E-04
  0.871999979       2.75478582E-04
  0.883000016      -4.37083887E-04
  0.893999994       6.38596655E-04
  0.904999971       7.67112768E-04
  0.916000009      -1.43121986E-03
  0.926999986      -2.16161236E-04
  0.938000023       1.89187878E-03
  0.949000001      -1.03177992E-03
  0.959999979      -2.00273446E-03
  0.971000016       1.90043682E-03
  0.981999993       1.48283294E-03
  0.992999971      -2.08444474E-03
   1.00399995      -8.03282310E-04
   1.01499999       1.92421093E-03
   1.02600002       1.04678667E-03
   1.03699994      -1.36122794E-03
   1.04799998      -2.03849771E-03
   1.05900002       7.62170181E-04
   1.07000005       2.61668209E-03
   1.08099997      -1.14598044E-03
   1.09200001      -2.48120958E-03
   1.10300004       2.43134494E-03
   1.11399996       2.00620620E-03
   1.12500000      -3.12848901E-03
   1.13600004      -1.07821007E-03
   1.14699996       2.42795795E-03
   1.15799999      -2.65037554E-04
   1.16900003      -9.57307522E-04
   1.17999995       1.22354447E-03
   1.19099998      -2.82576628E-04
   1.20200002      -1.05267717E-03
   1.21300006       9.53815645E-04
   1.22399998       3.21430649E-04
   1.23500001      -9.51226044E-04
   1.24600005      -3.62440216E-04
   1.25699997      -1.96453140E-04
   1.26800001       9.68729262E-04
   1.27900004       1.53662323E-03
   1.28999996      -1.47990172E-03
   1.30100000      -1.45606697E-03
   1.31200004       2.04173755E-03
   1.32299995       1.03450788E-04
   1.33399999      -2.35228380E-03
   1.34500003       1.35060796E-03
   1.35599995       1.97610725E-03
   1.36699998      -1.73342263E-03
   1.37800002      -7.78016518E-04
   1.38900006       8.44326045E-04
