 -0.959999979       0.00000000
 -0.925000012       2.04762159E-06
 -0.889999986       1.70046260E-05
 -0.855000019       5.45860166E-05
 -0.819999993       8.80490697E-05
 -0.785000026       6.90116867E-05
 -0.750000000       1.54938578E-04
 -0.714999974       6.52924064E-04
 -0.680000007       1.37077773E-03
 -0.644999981       1.82641635E-03
 -0.610000014       2.47582980E-03
 -0.574999988       4.17046854E-03
 -0.540000021       6.29515713E-03
 -0.504999995       7.50285899E-03
 -0.469999999       7.50864949E-03
 -0.435000002       5.91382803E-03
 -0.400000006       1.17762433E-03
 -0.365000010      -7.28911860E-03
 -0.330000013      -1.84434634E-02
 -0.294999987      -3.11623532E-02
 -0.259999990      -4.31239456E-02
 -0.224999994      -4.96001020E-02
 -0.189999998      -4.66754101E-02
 -0.155000001      -3.28549556E-02
 -0.119999997      -5.05009014E-03
  -8.50000009E-02   4.37540710E-02
  -5.00000007E-02  0.122455895
  -1.49999997E-02  0.239260420
   1.99999996E-02  0.392915606
   5.49999997E-02  0.551469207
   9.00000036E-02  0.629850626
  0.125000000      0.484200984
  0.159999996      -6.62062019E-02
  0.194999993      -1.18080533
  0.230000004      -2.90542459
  0.264999986      -5.07618427
  0.300000012      -7.26605320
  0.335000008      -8.81076908
  0.370000005      -8.93234348
  0.405000001      -6.94861984
  0.439999998      -2.51538181
  0.474999994       4.17383766
  0.509999990       12.2951107
  0.545000017       20.4537163
  0.579999983       26.9129448
  0.615000010       29.9551296
  0.649999976       28.2949009
  0.685000002       21.4527168
  0.720000029       9.99283028
  0.754999995      -4.46746588
  0.790000021      -19.5182323
  0.824999988      -32.4377785
  0.860000014      -40.7836266
  0.894999981      -42.9537659
  0.930000007      -38.5662346
  0.964999974      -28.5366707
   1.00000000      -14.8331022
   1.03499997       3.75425350E-03
   1.07000005       13.4311590
   1.10500002       23.4205837
   1.13999999       28.7984352
   1.17499995       29.3491974
   1.21000004       25.7033596
   1.24500000       19.0911045
   1.27999997       11.0414219
   1.31500006       3.07967377
   1.35000002      -3.53692865
   1.38499999      -8.00831699
   1.41999996      -10.0758505
   1.45500004      -9.98656178
   1.49000001      -8.34395027
   1.52499998      -5.88955212
   1.55999994      -3.29369020
   1.59500003      -1.03174829
   1.63000000      0.627448916
