 -0.800000012       0.00000000
 -0.788999975       0.00000000
 -0.777999997       0.00000000
 -0.767000020      -1.82193709E-08
 -0.755999982      -4.18974651E-08
 -0.745000005       4.69074337E-07
 -0.734000027      -2.90906172E-07
 -0.722999990      -2.41927364E-06
 -0.712000012       2.78070570E-06
 -0.700999975       6.22823063E-06
 -0.689999998      -1.03817647E-05
 -0.679000020      -8.57081886E-06
 -0.667999983       2.58569944E-05
 -0.657000005       1.87347769E-06
 -0.646000028      -4.97191468E-05
 -0.634999990       1.83690263E-05
 -0.624000013       7.41558470E-05
 -0.612999976      -4.45202240E-05
 -0.601999998      -7.41293115E-05
 -0.591000021       6.54308242E-05
 -0.579999983       1.91026684E-05
 -0.569000006      -8.64717513E-05
 -0.558000028       8.02840441E-05
 -0.546999991       1.13985727E-04
 -0.536000013      -1.50421751E-04
 -0.524999976      -1.08280481E-04
 -0.513999999       1.33351801E-04
 -0.503000021       2.35714779E-05
 -0.492000014      -5.18271518E-05
 -0.481000006       9.15527417E-05
 -0.469999999      -6.46250992E-05
 -0.458999991      -1.42243589E-04
 -0.448000014       2.23829033E-04
 -0.437000006       1.33034759E-04
 -0.425999999      -3.71178292E-04
 -0.414999992      -2.24464209E-04
 -0.404000014       5.70963130E-05
 -0.393000007      -1.31025561E-04
 -0.381999999       8.21196954E-05
 -0.370999992       2.87204777E-04
 -0.360000014      -5.15037973E-04
 -0.349000007      -8.78968101E-04
 -0.338000000      -7.55130313E-05
 -0.326999992      -5.26963777E-05
 -0.316000015      -8.76574428E-04
 -0.305000007      -9.79522476E-04
 -0.294000000      -1.18237268E-03
 -0.282999992      -1.96983316E-03
 -0.272000015      -1.86371978E-03
 -0.261000007      -1.69421034E-03
 -0.250000000      -3.04607069E-03
 -0.238999993      -4.38277423E-03
 -0.228000000      -5.04739489E-03
 -0.216999993      -6.55017700E-03
 -0.206000000      -7.98014831E-03
 -0.194999993      -8.60591792E-03
 -0.184000000      -1.09724402E-02
 -0.172999993      -1.49090970E-02
 -0.162000000      -1.73531286E-02
 -0.150999993      -1.94474254E-02
 -0.140000001      -2.34873034E-02
 -0.128999993      -2.76574008E-02
 -0.118000001      -3.13633420E-02
 -0.107000001      -3.65493856E-02
  -9.60000008E-02  -4.20048088E-02
  -8.50000009E-02  -4.62638810E-02
  -7.40000010E-02  -5.14648221E-02
  -6.30000010E-02  -5.77658080E-02
  -5.20000011E-02  -6.28071651E-02
  -4.10000011E-02  -6.74083456E-02
  -2.99999993E-02  -7.26659968E-02
  -1.89999994E-02  -7.66185969E-02
  -8.00000038E-03  -7.94054866E-02
   3.00000003E-03  -8.29993635E-02
   1.40000004E-02  -8.57985467E-02
   2.50000004E-02  -8.61831084E-02
   3.59999985E-02  -8.63365680E-02
   4.69999984E-02  -8.71816725E-02
   5.79999983E-02  -8.74384791E-02
   6.89999983E-02  -8.82379785E-02
   7.99999982E-02  -9.11425203E-02
   9.09999982E-02  -9.54438299E-02
  0.101999998     -0.102122419
  0.112999998     -0.114347711
  0.123999998     -0.133206010
  0.135000005     -0.158812270
  0.145999998     -0.193115637
  0.157000005     -0.237794518
  0.167999998     -0.293601662
  0.179000005     -0.362438321
  0.189999998     -0.445553482
  0.201000005     -0.541630387
  0.211999997     -0.649775624
  0.223000005     -0.770335793
  0.233999997     -0.901225865
  0.245000005      -1.03802240
  0.256000012      -1.17704308
  0.266999990      -1.31399155
  0.277999997      -1.44197810
  0.289000005      -1.55399168
  0.300000012      -1.64364147
  0.310999990      -1.70241845
  0.321999997      -1.72074509
  0.333000004      -1.69111335
  0.344000012      -1.60687137
  0.354999989      -1.46104872
  0.365999997      -1.24864805
  0.377000004     -0.966777205
  0.388000011     -0.613524139
  0.398999989     -0.190313637
  0.409999996      0.297245950
  0.421000004      0.841974318
  0.432000011       1.43430567
  0.442999989       2.06013298
  0.453999996       2.70325661
  0.465000004       3.34667253
  0.476000011       3.97014499
  0.486999989       4.55172825
  0.497999996       5.07136869
  0.509000003       5.50954533
  0.519999981       5.84628344
  0.531000018       6.06462240
  0.541999996       6.15192890
  0.552999973       6.09859848
  0.564000010       5.89936733
  0.574999988       5.55455542
  0.586000025       5.06877995
  0.597000003       4.45110178
  0.607999980       3.71608353
  0.619000018       2.88262320
  0.629999995       1.97281647
  0.640999973       1.01182866
  0.652000010       2.65253186E-02
  0.662999988     -0.955975652
  0.674000025      -1.90847564
  0.685000002      -2.80474186
  0.695999980      -3.62131548
  0.707000017      -4.33800983
  0.717999995      -4.93807507
  0.728999972      -5.40921688
  0.740000010      -5.74409485
  0.750999987      -5.93981361
  0.762000024      -5.99776030
  0.773000002      -5.92396641
  0.783999979      -5.72879219
  0.795000017      -5.42561245
  0.805999994      -5.02970123
  0.816999972      -4.55809498
  0.828000009      -4.02933311
  0.838999987      -3.46224570
  0.850000024      -2.87496758
  0.861000001      -2.28468943
  0.871999979      -1.70705771
  0.883000016      -1.15532529
  0.893999994     -0.640439570
  0.904999971     -0.171594173
  0.916000009      0.244183958
  0.926999986      0.603009343
  0.938000023      0.903794050
  0.949000001       1.14667785
  0.959999979       1.33274877
  0.971000016       1.46521711
  0.981999993       1.54905236
  0.992999971       1.58936524
   1.00399995       1.59159935
   1.01499999       1.56219447
   1.02600002       1.50723207
   1.03699994       1.43170345
   1.04799998       1.34085715
   1.05900002       1.24023247
   1.07000005       1.13427603
   1.08099997       1.02646923
   1.09200001      0.919799685
   1.10300004      0.816369951
   1.11399996      0.718033493
   1.12500000      0.626813054
   1.13600004      0.543448210
   1.14699996      0.467546791
   1.15799999      0.399516046
   1.16900003      0.339612395
   1.17999995      0.286495417
   1.19099998      0.239595041
   1.20200002      0.199843660
   1.21300006      0.166260019
   1.22399998      0.136378065
   1.23500001      0.110233486
   1.24600005       8.88788253E-02
   1.25699997       7.08921254E-02
   1.26800001       5.48855811E-02
   1.27900004       4.17063907E-02
   1.28999996       3.12482305E-02
   1.30100000       2.19455175E-02
   1.31200004       1.40175642E-02
   1.32299995       8.36502854E-03
   1.33399999       4.01063403E-03
   1.34500003       1.84475837E-04
   1.35599995      -2.57610180E-03
   1.36699998      -4.64365771E-03
   1.37800002      -6.49006199E-03
   1.38900006      -7.16164196E-03
