 -0.800000012       0.00000000
 -0.788999975       0.00000000
 -0.777999997      -2.53316901E-09
 -0.767000020       2.68293121E-08
 -0.755999982       1.00033599E-08
 -0.745000005      -3.37728522E-07
 -0.734000027      -8.25953208E-08
 -0.722999990       1.34978268E-06
 -0.712000012       6.23394669E-08
 -0.700999975      -3.30467469E-06
 -0.689999998       6.06802132E-07
 -0.679000020       5.72501358E-06
 -0.667999983      -3.02650687E-06
 -0.657000005      -8.71197153E-06
 -0.646000028       5.50951199E-06
 -0.634999990       1.13536798E-05
 -0.624000013      -1.82920667E-06
 -0.612999976      -7.39988582E-06
 -0.601999998      -1.27846433E-05
 -0.591000021      -1.59934025E-05
 -0.579999983       2.41265207E-05
 -0.569000006       5.24861607E-05
 -0.558000028      -1.76270714E-05
 -0.546999991      -7.83982759E-05
 -0.536000013      -2.34717891E-06
 -0.524999976       8.26582836E-05
 -0.513999999       3.02647986E-05
 -0.503000021      -7.31577966E-05
 -0.492000014      -9.90092012E-05
 -0.481000006      -1.88263293E-05
 -0.469999999       1.23460981E-04
 -0.458999991       1.69297899E-04
 -0.448000014       1.56124770E-05
 -0.437000006      -1.35229697E-04
 -0.425999999      -4.26657134E-05
 -0.414999992       2.00115028E-04
 -0.404000014       3.56266770E-04
 -0.393000007       3.54837830E-04
 -0.381999999       2.89306394E-04
 -0.370999992       3.44805798E-04
 -0.360000014       6.45824708E-04
 -0.349000007       1.05988723E-03
 -0.338000000       1.37164420E-03
 -0.326999992       1.61504152E-03
 -0.316000015       2.01472663E-03
 -0.305000007       2.76889140E-03
 -0.294000000       3.97336064E-03
 -0.282999992       5.50233945E-03
 -0.272000015       7.08311098E-03
 -0.261000007       8.78302660E-03
 -0.250000000       1.11293271E-02
 -0.238999993       1.44933742E-02
 -0.228000000       1.87615659E-02
 -0.216999993       2.37738322E-02
 -0.206000000       2.96693090E-02
 -0.194999993       3.67785431E-02
 -0.184000000       4.55047637E-02
 -0.172999993       5.61777353E-02
 -0.162000000       6.88518882E-02
 -0.150999993       8.34976584E-02
 -0.140000001      0.100383580
 -0.128999993      0.119972281
 -0.118000001      0.142540544
 -0.107000001      0.168099880
  -9.60000008E-02  0.196558595
  -8.50000009E-02  0.227873340
  -7.40000010E-02  0.262042373
  -6.30000010E-02  0.298902243
  -5.20000011E-02  0.338038385
  -4.10000011E-02  0.378881097
  -2.99999993E-02  0.420658648
  -1.89999994E-02  0.462381333
  -8.00000038E-03  0.502989352
   3.00000003E-03  0.541184247
   1.40000004E-02  0.575238109
   2.50000004E-02  0.603363395
   3.59999985E-02  0.623854160
   4.69999984E-02  0.634678602
   5.79999983E-02  0.633601606
   6.89999983E-02  0.618578434
   7.99999982E-02  0.587519467
   9.09999982E-02  0.538349152
  0.101999998      0.469567955
  0.112999998      0.380002975
  0.123999998      0.268451035
  0.135000005      0.134356126
  0.145999998      -2.19166707E-02
  0.157000005     -0.199644744
  0.167999998     -0.397494048
  0.179000005     -0.613011301
  0.189999998     -0.843121052
  0.201000005      -1.08429253
  0.211999997      -1.33198619
  0.223000005      -1.58090544
  0.233999997      -1.82552433
  0.245000005      -2.05976772
  0.256000012      -2.27696466
  0.266999990      -2.47047997
  0.277999997      -2.63381958
  0.289000005      -2.76051664
  0.300000012      -2.84456992
  0.310999990      -2.88073301
  0.321999997      -2.86441159
  0.333000004      -2.79186559
  0.344000012      -2.66056108
  0.354999989      -2.46928167
  0.365999997      -2.21825957
  0.377000004      -1.90934110
  0.388000011      -1.54594982
  0.398999989      -1.13298893
  0.409999996     -0.676831424
  0.421000004     -0.185337290
  0.432000011      0.332184732
  0.442999989      0.865184128
  0.453999996       1.40217030
  0.465000004       1.93095994
  0.476000011       2.43901896
  0.486999989       2.91391850
  0.497999996       3.34361649
  0.509000003       3.71668363
  0.519999981       4.02278996
  0.531000018       4.25320435
  0.541999996       4.40101337
  0.552999973       4.46134996
  0.564000010       4.43176794
  0.574999988       4.31241035
  0.586000025       4.10588980
  0.597000003       3.81725240
  0.607999980       3.45400786
  0.619000018       3.02585721
  0.629999995       2.54424095
  0.640999973       2.02206063
  0.652000010       1.47335505
  0.662999988      0.912674427
  0.674000025      0.354504824
  0.685000002     -0.187101528
  0.695999980     -0.699009538
  0.707000017      -1.16952312
  0.717999995      -1.58865714
  0.728999972      -1.94837379
  0.740000010      -2.24289608
  0.750999987      -2.46877337
  0.762000024      -2.62476754
  0.773000002      -2.71183705
  0.783999979      -2.73302293
  0.795000017      -2.69313002
  0.805999994      -2.59845924
  0.816999972      -2.45651913
  0.828000009      -2.27553678
  0.838999987      -2.06404948
  0.850000024      -1.83071339
  0.861000001      -1.58404517
  0.871999979      -1.33206010
  0.883000016      -1.08203018
  0.893999994     -0.840325773
  0.904999971     -0.612249494
  0.916000009     -0.401954323
  0.926999986     -0.212511837
  0.938000023      -4.60119322E-02
  0.949000001       9.64399204E-02
  0.959999979      0.214709163
  0.971000016      0.309431523
  0.981999993      0.381810695
  0.992999971      0.433575124
   1.00399995      0.466839790
   1.01499999      0.483854502
   1.02600002      0.486994386
   1.03699994      0.478808135
   1.04799998      0.461715579
   1.05900002      0.437762976
   1.07000005      0.408813238
   1.08099997      0.376653522
   1.09200001      0.342809975
   1.10300004      0.308534503
   1.11399996      0.274886787
   1.12500000      0.242608756
   1.13600004      0.212132052
   1.14699996      0.183810279
   1.15799999      0.157940254
   1.16900003      0.134650260
   1.17999995      0.113937125
   1.19099998       9.56750512E-02
   1.20200002       7.96305612E-02
   1.21300006       6.56459704E-02
   1.22399998       5.36586307E-02
   1.23500001       4.35118899E-02
   1.24600005       3.49747129E-02
   1.25699997       2.78315358E-02
   1.26800001       2.18272060E-02
   1.27900004       1.67748798E-02
   1.28999996       1.26701063E-02
   1.30100000       9.45352204E-03
   1.31200004       6.90137409E-03
   1.32299995       4.85971756E-03
   1.33399999       3.26193450E-03
   1.34500003       2.01677415E-03
   1.35599995       1.12028467E-03
   1.36699998       5.94934390E-04
   1.37800002       2.92441953E-04
   1.38900006       8.23112860E-05
