 -0.959999979       0.00000000
 -0.925000012       0.00000000
 -0.889999986       0.00000000
 -0.855000019      -8.46222337E-15
 -0.819999993      -2.19073284E-12
 -0.785000026      -1.75379069E-11
 -0.750000000      -9.20461277E-12
 -0.714999974       7.71373104E-11
 -0.680000007      -1.90407396E-13
 -0.644999981       4.32408519E-11
 -0.610000014       2.33298547E-10
 -0.574999988      -3.19931220E-10
 -0.540000021      -2.12345391E-10
 -0.504999995       4.52038240E-10
 -0.469999999       2.57639532E-09
 -0.435000002      -2.80230217E-09
 -0.400000006      -3.00708125E-09
 -0.365000010      -1.01679767E-08
 -0.330000013       9.31143340E-09
 -0.294999987       4.75057549E-09
 -0.259999990      -1.12470149E-08
 -0.224999994       2.75641536E-08
 -0.189999998       2.83645973E-09
 -0.155000001      -1.56518691E-08
 -0.119999997       3.66301620E-08
  -8.50000009E-02   2.62236330E-08
  -5.00000007E-02  -3.11070920E-08
  -1.49999997E-02  -3.00380769E-08
   1.99999996E-02  -1.89294447E-08
   5.49999997E-02   3.34185835E-08
   9.00000036E-02  -4.92748917E-08
  0.125000000      -2.36744349E-08
  0.159999996       9.58839195E-08
  0.194999993       5.97777272E-10
  0.230000004      -9.39433775E-08
  0.264999986       6.19673557E-08
  0.300000012       1.29870429E-07
  0.335000008      -1.80331501E-08
  0.370000005      -8.36223606E-08
  0.405000001       3.20992548E-08
  0.439999998       9.16885199E-08
  0.474999994       2.76803220E-08
  0.509999990       1.04846409E-09
  0.545000017       7.09535053E-09
  0.579999983      -1.08977837E-07
  0.615000010      -1.05862490E-07
  0.649999976       4.68920973E-08
  0.685000002       1.12882915E-07
  0.720000029      -1.03070139E-08
  0.754999995      -1.12594215E-07
  0.790000021      -3.27058913E-08
  0.824999988       1.61244031E-08
  0.860000014      -9.92863036E-08
  0.894999981      -1.23122973E-07
  0.930000007       7.55320499E-08
  0.964999974       1.70210811E-07
   1.00000000       1.86389855E-08
   1.03499997      -1.02451544E-07
   1.07000005      -5.98250693E-08
   1.10500002       6.64812294E-09
   1.13999999       3.64798751E-08
   1.17499995       6.79884451E-08
   1.21000004       6.54879742E-08
   1.24500000       1.90972393E-08
   1.27999997      -9.52478985E-09
   1.31500006       2.82527046E-09
   1.35000002       1.57917697E-08
   1.38499999       1.12490484E-09
   1.41999996       1.14396370E-09
   1.45500004       4.14826857E-08
   1.49000001       4.53442048E-08
   1.52499998      -3.51597116E-08
   1.55999994      -8.14415344E-08
   1.59500003      -2.85484951E-08
   1.63000000       1.48334118E-08
