 -0.800000012       0.00000000
 -0.788999975       0.00000000
 -0.777999997       1.75706890E-22
 -0.767000020       2.97563115E-14
 -0.755999982       1.92842975E-13
 -0.745000005      -2.37005662E-12
 -0.734000027       1.48903502E-12
 -0.722999990      -6.91422484E-12
 -0.712000012       3.05675450E-11
 -0.700999975      -2.65423360E-11
 -0.689999998       1.42112641E-11
 -0.679000020      -4.41533858E-11
 -0.667999983       1.31769123E-10
 -0.657000005      -5.99901517E-11
 -0.646000028      -1.34080275E-10
 -0.634999990      -8.71275760E-11
 -0.624000013       2.63732036E-10
 -0.612999976       2.47580595E-10
 -0.601999998      -7.09850456E-10
 -0.591000021       2.16472465E-11
 -0.579999983       1.26873656E-09
 -0.569000006      -3.54220403E-10
 -0.558000028      -1.42019585E-09
 -0.546999991       1.20176402E-09
 -0.536000013      -4.50375459E-10
 -0.524999976      -1.76593973E-09
 -0.513999999       2.67785394E-09
 -0.503000021       1.98468042E-09
 -0.492000014      -4.80476325E-09
 -0.481000006       6.96952762E-09
 -0.469999999      -7.20854709E-09
 -0.458999991      -2.10640252E-08
 -0.448000014       3.65983368E-08
 -0.437000006       2.38729427E-08
 -0.425999999      -5.54859731E-08
 -0.414999992       3.13524251E-09
 -0.404000014       1.40397987E-08
 -0.393000007      -4.07325054E-08
 -0.381999999       5.81093964E-08
 -0.370999992       7.30641005E-08
 -0.360000014      -1.43672324E-07
 -0.349000007      -1.63614935E-08
 -0.338000000       2.25246993E-07
 -0.326999992      -8.52597921E-08
 -0.316000015      -2.90667231E-07
 -0.305000007       1.35955361E-07
 -0.294000000       2.23608552E-07
 -0.282999992      -2.27042918E-07
 -0.272000015      -1.19165705E-07
 -0.261000007       9.83241989E-07
 -0.250000000      -3.70237785E-07
 -0.238999993      -1.51292795E-06
 -0.228000000      -9.61841920E-07
 -0.216999993       4.02530668E-06
 -0.206000000       1.25653128E-06
 -0.194999993      -5.49500646E-06
 -0.184000000       1.86061797E-08
 -0.172999993       5.23173139E-06
 -0.162000000      -2.43371301E-06
 -0.150999993      -8.85340523E-06
 -0.140000001       8.34452567E-06
 -0.128999993       1.68750994E-05
 -0.118000001      -1.46430502E-05
 -0.107000001      -1.64994126E-05
  -9.60000008E-02  -3.08151516E-06
  -8.50000009E-02   3.88103690E-05
  -7.40000010E-02  -1.61483251E-06
  -6.30000010E-02  -6.13694065E-05
  -5.20000011E-02   2.59031713E-05
  -4.10000011E-02   8.77683124E-05
  -2.99999993E-02  -5.85703092E-05
  -1.89999994E-02  -1.05402803E-04
  -8.00000038E-03   5.45381408E-05
   3.00000003E-03   1.08293701E-04
   1.40000004E-02  -4.22881858E-05
   2.50000004E-02  -5.06879223E-05
   3.59999985E-02   5.19779787E-05
   4.69999984E-02   1.98707839E-05
   5.79999983E-02  -9.09053197E-05
   6.89999983E-02  -1.98359321E-05
   7.99999982E-02   6.53054230E-05
   9.09999982E-02   2.05866236E-05
  0.101999998      -6.94150804E-05
  0.112999998       1.51018712E-05
  0.123999998       1.04637111E-04
  0.135000005      -5.18237684E-05
  0.145999998      -9.40361861E-05
  0.157000005       9.95539667E-05
  0.167999998       1.07447217E-04
  0.179000005      -1.39445430E-04
  0.189999998      -2.40608351E-04
  0.201000005       1.69308172E-04
  0.211999997       2.91402219E-04
  0.223000005      -1.24930026E-04
  0.233999997      -2.71931785E-04
  0.245000005       1.52553170E-04
  0.256000012       2.06929384E-04
  0.266999990      -2.16940258E-04
  0.277999997       3.17457443E-06
  0.289000005       6.10532225E-05
  0.300000012      -1.93002707E-04
  0.310999990       3.29252216E-04
  0.321999997       9.38623707E-05
  0.333000004      -4.90926614E-04
  0.344000012       4.26030456E-05
  0.354999989       4.92124585E-04
  0.365999997      -2.42011622E-04
  0.377000004      -4.43874655E-04
  0.388000011       2.66663323E-04
  0.398999989       3.23655491E-04
  0.409999996      -2.16207511E-04
  0.421000004      -8.36347172E-05
  0.432000011       2.06531535E-04
  0.442999989       6.98823642E-05
  0.453999996      -1.93843618E-04
  0.465000004      -5.72214594E-05
  0.476000011       3.58171092E-05
  0.486999989      -2.45298961E-05
  0.497999996       9.46253858E-05
  0.509000003       2.27148368E-04
  0.519999981      -2.95920094E-04
  0.531000018      -4.64603974E-04
  0.541999996       5.83053043E-04
  0.552999973       2.79871136E-04
  0.564000010      -6.21872954E-04
  0.574999988      -1.77876791E-04
  0.586000025       1.04554486E-03
  0.597000003      -2.58663815E-04
  0.607999980      -6.70950569E-04
  0.619000018       2.10709288E-04
  0.629999995       2.22400602E-04
  0.640999973      -1.57834569E-04
  0.652000010      -8.58744679E-05
  0.662999988       1.78466344E-05
  0.674000025      -3.85991116E-05
  0.685000002       7.79834110E-04
  0.695999980       3.12724660E-06
  0.707000017      -1.39278511E-03
  0.717999995       2.02160430E-04
  0.728999972       1.03708089E-03
  0.740000010      -8.39696033E-04
  0.750999987      -4.64586134E-04
  0.762000024       1.61904306E-03
  0.773000002       2.80481705E-04
  0.783999979      -1.78307772E-03
  0.795000017      -2.40456269E-04
  0.805999994       1.47018605E-03
  0.816999972       9.67776359E-05
  0.828000009      -8.92631710E-04
  0.838999987       3.17383456E-05
  0.850000024       4.09328291E-04
  0.861000001      -1.31855471E-04
  0.871999979      -2.69208598E-04
  0.883000016       1.17641859E-04
  0.893999994       3.84911051E-04
  0.904999971       2.52285914E-04
  0.916000009      -4.71172738E-04
  0.926999986      -6.65232947E-04
  0.938000023      -1.65865258E-05
  0.949000001       7.56238413E-04
  0.959999979       6.21053332E-04
  0.971000016      -1.78545859E-04
  0.981999993      -5.81387081E-04
  0.992999971      -1.25379971E-04
   1.00399995       5.80489395E-05
   1.01499999      -2.95800681E-04
   1.02600002      -3.24835673E-05
   1.03699994       4.38303396E-04
   1.04799998       1.33136937E-05
   1.05900002      -1.86124904E-04
   1.07000005       2.45105068E-04
   1.08099997       1.50442153E-04
   1.09200001      -3.34310680E-05
   1.10300004       1.98745503E-04
   1.11399996      -2.61781155E-04
   1.12500000      -6.77095552E-04
   1.13600004       1.31132270E-04
   1.14699996       4.03572369E-04
   1.15799999      -2.37881992E-04
   1.16900003       4.80480194E-05
   1.17999995       4.87832935E-04
   1.19099998      -1.61650882E-04
   1.20200002      -3.94015748E-04
   1.21300006       1.99641217E-04
   1.22399998       3.04237998E-04
   1.23500001       3.69750196E-05
   1.24600005      -2.12390471E-04
   1.25699997      -3.28671536E-04
   1.26800001       3.06103990E-04
   1.27900004       5.70816803E-04
   1.28999996      -6.15829835E-04
   1.30100000      -8.82685825E-04
   1.31200004       6.07125228E-04
   1.32299995       7.08626641E-04
   1.33399999      -6.46622619E-04
   1.34500003      -3.21522501E-04
   1.35599995       9.14253702E-04
   1.36699998       3.67395289E-04
   1.37800002      -9.09018680E-04
   1.38900006      -6.10764720E-04
