 -0.959999979       0.00000000
 -0.925000012       0.00000000
 -0.889999986       1.09310555E-07
 -0.855000019       1.50195569E-06
 -0.819999993       4.31900617E-06
 -0.785000026       8.17966520E-06
 -0.750000000       1.73402095E-05
 -0.714999974       4.01345969E-05
 -0.680000007       8.54631799E-05
 -0.644999981       1.68707382E-04
 -0.610000014       3.19931423E-04
 -0.574999988       5.83027897E-04
 -0.540000021       1.01184298E-03
 -0.504999995       1.66479056E-03
 -0.469999999       2.58832471E-03
 -0.435000002       3.79075529E-03
 -0.400000006       5.21321688E-03
 -0.365000010       6.70004729E-03
 -0.330000013       7.98899494E-03
 -0.294999987       8.76128208E-03
 -0.259999990       8.77471548E-03
 -0.224999994       8.07168707E-03
 -0.189999998       7.22346874E-03
 -0.155000001       7.52117625E-03
 -0.119999997       1.09703038E-02
  -8.50000009E-02   1.99475866E-02
  -5.00000007E-02   3.64532955E-02
  -1.49999997E-02   6.10294826E-02
   1.99999996E-02   9.16094407E-02
   5.49999997E-02  0.122750975
   9.00000036E-02  0.145763382
  0.125000000      0.150088385
  0.159999996      0.125932917
  0.194999993       6.76357821E-02
  0.230000004      -2.32435931E-02
  0.264999986     -0.136330992
  0.300000012     -0.253295243
  0.335000008     -0.351405263
  0.370000005     -0.409056962
  0.405000001     -0.411665112
  0.439999998     -0.355979651
  0.474999994     -0.251305640
  0.509999990     -0.117143475
  0.545000017       2.19882093E-02
  0.579999983      0.142819554
  0.615000010      0.228684962
  0.649999976      0.272460818
  0.685000002      0.276542574
  0.720000029      0.250317991
  0.754999995      0.206296131
  0.790000021      0.156268567
  0.824999988      0.108632684
  0.860000014       6.74628541E-02
  0.894999981       3.32786441E-02
  0.930000007       4.87989141E-03
  0.964999974      -1.87213309E-02
   1.00000000      -3.71884033E-02
   1.03499997      -4.90322188E-02
   1.07000005      -5.28538078E-02
   1.10500002      -4.88425456E-02
   1.13999999      -3.95334177E-02
   1.17499995      -2.92199329E-02
   1.21000004      -2.21967697E-02
   1.24500000      -2.07304042E-02
   1.27999997      -2.38993019E-02
   1.31500006      -2.80296039E-02
   1.35000002      -2.85831783E-02
   1.38499999      -2.25344542E-02
   1.41999996      -9.98752937E-03
   1.45500004       5.80044696E-03
   1.49000001       1.99566055E-02
   1.52499998       2.82377470E-02
   1.55999994       2.88169030E-02
   1.59500003       2.27829684E-02
   1.63000000       1.32757155E-02
