 -0.800000012       0.00000000
 -0.788999975       0.00000000
 -0.777999997       0.00000000
 -0.767000020       0.00000000
 -0.755999982      -1.30535860E-11
 -0.745000005       6.25098792E-11
 -0.734000027      -2.54223448E-10
 -0.722999990       4.68938777E-10
 -0.712000012       5.05171460E-10
 -0.700999975      -3.56243990E-09
 -0.689999998       3.95572153E-09
 -0.679000020       7.21774995E-09
 -0.667999983      -2.33126318E-08
 -0.657000005       6.26160768E-09
 -0.646000028       6.15047355E-08
 -0.634999990      -7.16299411E-08
 -0.624000013      -9.81996848E-08
 -0.612999976       2.00308008E-07
 -0.601999998       1.02556839E-07
 -0.591000021      -2.78603409E-07
 -0.579999983      -1.19521985E-07
 -0.569000006      -7.48068487E-08
 -0.558000028       3.75728774E-07
 -0.546999991       1.59406750E-06
 -0.536000013      -1.18636956E-06
 -0.524999976      -5.16412911E-06
 -0.513999999       2.42318720E-06
 -0.503000021       1.09521498E-05
 -0.492000014      -2.82992960E-06
 -0.481000006      -1.67531962E-05
 -0.469999999       4.60866744E-07
 -0.458999991       1.67293911E-05
 -0.448000014       4.34210415E-06
 -0.437000006      -3.82201279E-06
 -0.425999999      -5.18014895E-06
 -0.414999992      -2.14486354E-05
 -0.404000014      -7.05256025E-06
 -0.393000007       4.28271851E-05
 -0.381999999       2.82817782E-05
 -0.370999992      -4.18866948E-05
 -0.360000014      -3.68739384E-05
 -0.349000007       2.79780816E-05
 -0.338000000       3.45858643E-05
 -0.326999992      -8.37343941E-06
 -0.316000015      -4.48862229E-05
 -0.305000007      -6.49617868E-05
 -0.294000000      -3.83663064E-05
 -0.282999992      -1.19171818E-05
 -0.272000015      -9.50050526E-05
 -0.261000007      -1.87732992E-04
 -0.250000000      -1.37991330E-04
 -0.238999993      -1.13913266E-04
 -0.228000000      -2.93446617E-04
 -0.216999993      -4.97210363E-04
 -0.206000000      -5.82780980E-04
 -0.194999993      -6.93206268E-04
 -0.184000000      -9.09770606E-04
 -0.172999993      -1.22343632E-03
 -0.162000000      -1.72261370E-03
 -0.150999993      -2.36276980E-03
 -0.140000001      -2.97092460E-03
 -0.128999993      -3.67202912E-03
 -0.118000001      -4.74886596E-03
 -0.107000001      -6.18975144E-03
  -9.60000008E-02  -7.88354129E-03
  -8.50000009E-02  -9.91002098E-03
  -7.40000010E-02  -1.23557979E-02
  -6.30000010E-02  -1.52939279E-02
  -5.20000011E-02  -1.89092774E-02
  -4.10000011E-02  -2.32648533E-02
  -2.99999993E-02  -2.82733440E-02
  -1.89999994E-02  -3.40648741E-02
  -8.00000038E-03  -4.08859588E-02
   3.00000003E-03  -4.87357117E-02
   1.40000004E-02  -5.75577728E-02
   2.50000004E-02  -6.74397200E-02
   3.59999985E-02  -7.83792734E-02
   4.69999984E-02  -9.03269723E-02
   5.79999983E-02 -0.103364736
   6.89999983E-02 -0.117382348
   7.99999982E-02 -0.131964535
   9.09999982E-02 -0.146858811
  0.101999998     -0.161985040
  0.112999998     -0.176988736
  0.123999998     -0.191320658
  0.135000005     -0.204485580
  0.145999998     -0.215887636
  0.157000005     -0.224857256
  0.167999998     -0.230861589
  0.179000005     -0.233303100
  0.189999998     -0.231386542
  0.201000005     -0.224439755
  0.211999997     -0.211980820
  0.223000005     -0.193493292
  0.233999997     -0.168549791
  0.245000005     -0.136979505
  0.256000012      -9.86946598E-02
  0.266999990      -5.36878072E-02
  0.277999997      -2.28129490E-03
  0.289000005       5.49199395E-02
  0.300000012      0.117230520
  0.310999990      0.183808610
  0.321999997      0.253557205
  0.333000004      0.325256526
  0.344000012      0.397619843
  0.354999989      0.469194144
  0.365999997      0.538446903
  0.377000004      0.603976548
  0.388000011      0.664479792
  0.398999989      0.718655705
  0.409999996      0.765357673
  0.421000004      0.803674936
  0.432000011      0.832785130
  0.442999989      0.852006137
  0.453999996      0.860984683
  0.465000004      0.859577179
  0.476000011      0.847689629
  0.486999989      0.825371325
  0.497999996      0.792787910
  0.509000003      0.750086665
  0.519999981      0.697503030
  0.531000018      0.635382295
  0.541999996      0.563944042
  0.552999973      0.483298242
  0.564000010      0.393663883
  0.574999988      0.295317203
  0.586000025      0.188502148
  0.597000003       7.35733435E-02
  0.607999980      -4.89252843E-02
  0.619000018     -0.178286135
  0.629999995     -0.313535631
  0.640999973     -0.453323603
  0.652000010     -0.595926046
  0.662999988     -0.739266276
  0.674000025     -0.880937040
  0.685000002      -1.01819956
  0.695999980      -1.14796162
  0.707000017      -1.26688004
  0.717999995      -1.37154424
  0.728999972      -1.45858765
  0.740000010      -1.52480590
  0.750999987      -1.56733108
  0.762000024      -1.58375347
  0.773000002      -1.57223070
  0.783999979      -1.53164494
  0.795000017      -1.46172035
  0.805999994      -1.36308777
  0.816999972      -1.23731279
  0.828000009      -1.08684039
  0.838999987     -0.914924145
  0.850000024     -0.725574374
  0.861000001     -0.523415387
  0.871999979     -0.313504130
  0.883000016     -0.101183109
  0.893999994      0.108146183
  0.904999971      0.309278399
  0.916000009      0.497350216
  0.926999986      0.667960584
  0.938000023      0.817328930
  0.949000001      0.942463040
  0.959999979       1.04131889
  0.971000016       1.11280835
  0.981999993       1.15665531
  0.992999971       1.17338574
   1.00399995       1.16438699
   1.01499999       1.13175571
   1.02600002       1.07813644
   1.03699994       1.00668287
   1.04799998      0.920843184
   1.05900002      0.824101567
   1.07000005      0.719975114
   1.08099997      0.611943245
   1.09200001      0.503191590
   1.10300004      0.396561772
   1.11399996      0.294575423
   1.12500000      0.199272066
   1.13600004      0.112202145
   1.14699996       3.45740914E-02
   1.15799999      -3.28451730E-02
   1.16900003      -8.98166075E-02
   1.17999995     -0.136430666
   1.19099998     -0.173027456
   1.20200002     -0.200258180
   1.21300006     -0.218923509
   1.22399998     -0.229851261
   1.23500001     -0.234033927
   1.24600005     -0.232601821
   1.25699997     -0.226599976
   1.26800001     -0.216974288
   1.27900004     -0.204642579
   1.28999996     -0.190413505
   1.30100000     -0.174969882
   1.31200004     -0.158938885
   1.32299995     -0.142833889
   1.33399999     -0.127021387
   1.34500003     -0.111830764
   1.35599995      -9.75468531E-02
   1.36699998      -8.43047649E-02
   1.37800002      -7.21622258E-02
   1.38900006      -6.11927696E-02
