 -0.959999979       0.00000000
 -0.925000012      -1.03402363E-37
 -0.889999986      -2.06804726E-37
 -0.855000019      -2.06804726E-37
 -0.819999993       2.22222241E-12
 -0.785000026       1.89244707E-19
 -0.750000000      -4.44444438E-12
 -0.714999974       8.44444514E-11
 -0.680000007       1.73333348E-10
 -0.644999981      -1.11111106E-10
 -0.610000014      -1.11111106E-10
 -0.574999988       7.42222284E-10
 -0.540000021       4.57777871E-10
 -0.504999995       1.73333431E-10
 -0.469999999       5.29333377E-09
 -0.435000002      -2.67111067E-09
 -0.400000006      -2.20133334E-08
 -0.365000010      -8.36000069E-09
 -0.330000013       1.66711107E-08
 -0.294999987      -1.06355564E-08
 -0.259999990       5.29333333E-09
 -0.224999994       1.09968894E-07
 -0.189999998       9.29022335E-08
 -0.155000001      -7.09377659E-08
 -0.119999997      -1.72199989E-07
  -8.50000009E-02  -1.24413319E-07
  -5.00000007E-02   8.49378026E-08
  -1.49999997E-02   1.44102245E-07
   1.99999996E-02  -2.47293343E-07
   5.49999997E-02  -2.92804458E-07
   9.00000036E-02   3.44351093E-07
  0.125000000       5.42324415E-07
  0.159999996      -3.20680101E-07
  0.194999993      -8.03666808E-07
  0.230000004       8.21079993E-07
  0.264999986       8.89346722E-07
  0.300000012      -9.21995593E-07
  0.335000008      -4.13556052E-08
  0.370000005       9.80368782E-07
  0.405000001      -9.49302489E-07
  0.439999998      -1.14500017E-06
  0.474999994       9.75817784E-07
  0.509999990      -2.67113842E-09
  0.545000017      -1.12452005E-06
  0.579999983       9.67853452E-07
  0.615000010       8.60475609E-07
  0.649999976      -7.90866693E-07
  0.685000002       1.10253310E-07
  0.720000029      -5.81378252E-08
  0.754999995      -1.18681339E-06
  0.790000021       1.15700880E-06
  0.824999988       2.39035990E-06
  0.860000014      -9.96804829E-07
  0.894999981      -1.94684935E-06
  0.930000007       2.12652978E-07
  0.964999974       2.60573962E-08
   1.00000000      -1.15026999E-07
   1.03499997       9.61310889E-07
   1.07000005      -2.43026932E-07
   1.10500002      -6.69124745E-07
   1.13999999       1.03526645E-06
   1.17499995      -5.52502513E-07
   1.21000004      -2.67730252E-06
   1.24500000       9.13524218E-07
   1.27999997       3.98552402E-06
   1.31500006       6.13150632E-07
   1.35000002      -2.59083163E-06
   1.38499999      -1.22094718E-06
   1.41999996       2.21755073E-07
   1.45500004       1.44386178E-07
   1.49000001       5.19852847E-07
   1.52499998       9.86341774E-07
   1.55999994       2.90021745E-07
   1.59500003      -1.40071609E-06
   1.63000000      -1.31474269E-06
