 -0.959999979       0.00000000
 -0.925000012      -4.33324167E-23
 -0.889999986      -9.18207377E-08
 -0.855000019      -1.47097353E-06
 -0.819999993      -3.34273273E-06
 -0.785000026      -2.11262227E-06
 -0.750000000      -3.56754049E-06
 -0.714999974      -1.96862184E-05
 -0.680000007      -4.49591789E-05
 -0.644999981      -6.76298005E-05
 -0.610000014      -1.03427315E-04
 -0.574999988      -1.79150957E-04
 -0.540000021      -2.97891762E-04
 -0.504999995      -4.48207546E-04
 -0.469999999      -6.13031967E-04
 -0.435000002      -7.60752417E-04
 -0.400000006      -8.68359115E-04
 -0.365000010      -9.37526871E-04
 -0.330000013      -9.74988390E-04
 -0.294999987      -1.05004455E-03
 -0.259999990      -1.44582859E-03
 -0.224999994      -2.75804731E-03
 -0.189999998      -5.93807176E-03
 -0.155000001      -1.23765711E-02
 -0.119999997      -2.39148661E-02
  -8.50000009E-02  -4.25956808E-02
  -5.00000007E-02  -7.01063424E-02
  -1.49999997E-02 -0.106859073
   1.99999996E-02 -0.150703222
   5.49999997E-02 -0.195632249
   9.00000036E-02 -0.231122494
  0.125000000     -0.242745742
  0.159999996     -0.214623541
  0.194999993     -0.133769080
  0.230000004       4.74516116E-03
  0.264999986      0.193615139
  0.300000012      0.411829144
  0.335000008      0.626998246
  0.370000005      0.801454484
  0.405000001      0.900355577
  0.439999998      0.899068296
  0.474999994      0.787771225
  0.509999990      0.572571754
  0.545000017      0.273626983
  0.579999983      -7.83004016E-02
  0.615000010     -0.445391417
  0.649999976     -0.786125302
  0.685000002      -1.05912960
  0.720000029      -1.22808158
  0.754999995      -1.26752543
  0.790000021      -1.16856229
  0.824999988     -0.942428887
  0.860000014     -0.620002031
  0.894999981     -0.246656954
  0.930000007      0.126372248
  0.964999974      0.451774001
   1.00000000      0.694210231
   1.03499997      0.834445775
   1.07000005      0.869196296
   1.10500002      0.808064938
   1.13999999      0.669609010
   1.17499995      0.478172630
   1.21000004      0.261824131
   1.24500000       5.02782464E-02
   1.27999997     -0.128581747
   1.31500006     -0.253665477
   1.35000002     -0.315455437
   1.38499999     -0.318090230
   1.41999996     -0.276983321
   1.45500004     -0.212460816
   1.49000001     -0.142380193
   1.52499998      -7.74786025E-02
   1.55999994      -2.14985479E-02
   1.59500003       2.49238852E-02
   1.63000000       5.99834286E-02
