 -0.800000012       0.00000000
 -0.788999975       0.00000000
 -0.777999997       0.00000000
 -0.767000020       0.00000000
 -0.755999982      -1.54137396E-08
 -0.745000005      -3.41872010E-07
 -0.734000027       2.48480433E-06
 -0.722999990      -5.84540658E-06
 -0.712000012      -1.09216023E-06
 -0.700999975       2.88967112E-05
 -0.689999998      -3.45989683E-05
 -0.679000020      -5.21091388E-05
 -0.667999983       1.39486991E-04
 -0.657000005       3.80361757E-06
 -0.646000028      -2.80230859E-04
 -0.634999990       2.03074218E-04
 -0.624000013       2.88524025E-04
 -0.612999976      -5.39916276E-04
 -0.601999998       7.89053665E-05
 -0.591000021       7.25842430E-04
 -0.579999983      -8.92104639E-04
 -0.569000006      -2.59014167E-04
 -0.558000028       1.74019148E-03
 -0.546999991      -1.25994731E-03
 -0.536000013      -1.67646143E-03
 -0.524999976       3.57924704E-03
 -0.513999999      -3.51781870E-04
 -0.503000021      -5.37524419E-03
 -0.492000014       4.71722940E-03
 -0.481000006       4.49804123E-03
 -0.469999999      -1.04331970E-02
 -0.458999991       7.94689404E-04
 -0.448000014       1.49696730E-02
 -0.437000006      -1.02111446E-02
 -0.425999999      -1.48550319E-02
 -0.414999992       2.07664315E-02
 -0.404000014       7.38792494E-03
 -0.393000007      -2.77488530E-02
 -0.381999999       7.00822286E-03
 -0.370999992       2.65161376E-02
 -0.360000014      -2.39958595E-02
 -0.349000007      -1.49381338E-02
 -0.338000000       3.68653834E-02
 -0.326999992      -4.07246500E-03
 -0.316000015      -3.77038606E-02
 -0.305000007       2.67228410E-02
 -0.294000000       2.79990844E-02
 -0.282999992      -3.95405218E-02
 -0.272000015      -5.08842804E-03
 -0.261000007       4.30752411E-02
 -0.250000000      -1.28047029E-02
 -0.238999993      -2.04349626E-02
 -0.228000000       3.84344719E-02
 -0.216999993       6.75759884E-03
 -0.206000000      -2.57449988E-02
 -0.194999993       3.86773385E-02
 -0.184000000       3.98493595E-02
 -0.172999993      -1.66136436E-02
 -0.162000000       3.23309489E-02
 -0.150999993       7.46711418E-02
 -0.140000001       1.76440589E-02
 -0.128999993       4.32731956E-02
 -0.118000001      0.128752097
 -0.107000001       8.76545310E-02
  -9.60000008E-02   6.33522123E-02
  -8.50000009E-02  0.183789238
  -7.40000010E-02  0.227423564
  -6.30000010E-02  0.167981714
  -5.20000011E-02  0.241033077
  -4.10000011E-02  0.369254231
  -2.99999993E-02  0.368500054
  -1.89999994E-02  0.388961315
  -8.00000038E-03  0.529294670
   3.00000003E-03  0.621700108
   1.40000004E-02  0.649160802
   2.50000004E-02  0.743281543
   3.59999985E-02  0.874553025
   4.69999984E-02  0.971741915
   5.79999983E-02   1.05146706
   6.89999983E-02   1.11967254
   7.99999982E-02   1.20015931
   9.09999982E-02   1.30001926
  0.101999998       1.32555676
  0.112999998       1.28703964
  0.123999998       1.30466950
  0.135000005       1.28502989
  0.145999998       1.09201109
  0.157000005      0.878091514
  0.167999998      0.719026566
  0.179000005      0.393881202
  0.189999998     -0.121058285
  0.201000005     -0.612757206
  0.211999997      -1.13984656
  0.223000005      -1.89902449
  0.233999997      -2.80119133
  0.245000005      -3.69879603
  0.256000012      -4.67653942
  0.266999990      -5.83183002
  0.277999997      -7.09511518
  0.289000005      -8.36555672
  0.300000012      -9.64209843
  0.310999990      -10.9844637
  0.321999997      -12.3639307
  0.333000004      -13.6319122
  0.344000012      -14.7280273
  0.354999989      -15.7325993
  0.365999997      -16.5995140
  0.377000004      -17.1208687
  0.388000011      -17.2371635
  0.398999989      -17.0393143
  0.409999996      -16.4320812
  0.421000004      -15.1854610
  0.432000011      -13.3150787
  0.442999989      -10.9659233
  0.453999996      -7.98747635
  0.465000004      -4.15999413
  0.476000011      0.323831230
  0.486999989       5.22827148
  0.497999996       10.7415314
  0.509000003       16.9457817
  0.519999981       23.4259911
  0.531000018       29.9164448
  0.541999996       36.5354614
  0.552999973       43.1227798
  0.564000010       49.1969299
  0.574999988       54.5244217
  0.586000025       59.0456886
  0.597000003       62.4924927
  0.607999980       64.5372925
  0.619000018       64.9874496
  0.629999995       63.7294502
  0.640999973       60.6960983
  0.652000010       55.8183861
  0.662999988       49.0297775
  0.674000025       40.4525032
  0.685000002       30.3482571
  0.695999980       18.8625774
  0.707000017       6.19924307
  0.717999995      -7.14104939
  0.728999972      -20.7025890
  0.740000010      -34.2628670
  0.750999987      -47.3841782
  0.762000024      -59.3927002
  0.773000002      -69.9379044
  0.783999979      -78.8984299
  0.795000017      -85.8683701
  0.805999994      -90.3854828
  0.816999972      -92.4246674
  0.828000009      -92.0989532
  0.838999987      -89.3311691
  0.850000024      -84.1350174
  0.861000001      -76.8147888
  0.871999979      -67.6905060
  0.883000016      -57.0697021
  0.893999994      -45.3528862
  0.904999971      -32.9355240
  0.916000009      -20.1992607
  0.926999986      -7.62350845
  0.938000023       4.34898758
  0.949000001       15.4630308
  0.959999979       25.4815254
  0.971000016       34.0899124
  0.981999993       41.0782280
  0.992999971       46.4233818
   1.00399995       50.1512566
   1.01499999       52.2427902
   1.02600002       52.7255898
   1.03699994       51.7888908
   1.04799998       49.6782341
   1.05900002       46.5294228
   1.07000005       42.4985924
   1.08099997       37.8978844
   1.09200001       32.9735527
   1.10300004       27.7997112
   1.11399996       22.5505600
   1.12500000       17.5253830
   1.13600004       12.8459768
   1.14699996       8.47358036
   1.15799999       4.49369621
   1.16900003       1.09415507
   1.17999995      -1.70344496
   1.19099998      -4.04996443
   1.20200002      -5.99398422
   1.21300006      -7.39910269
   1.22399998      -8.24046040
   1.23500001      -8.76119804
   1.24600005      -9.11572266
   1.25699997      -9.14547348
   1.26800001      -8.78172016
   1.27900004      -8.31163120
   1.28999996      -7.92723560
   1.30100000      -7.41643190
   1.31200004      -6.65268946
   1.32299995      -5.93269157
   1.33399999      -5.43810606
   1.34500003      -4.88793373
   1.35599995      -4.15130997
   1.36699998      -3.56846309
   1.37800002      -3.25100636
   1.38900006      -2.84256053
