 -0.800000012       0.00000000
 -0.788999975       0.00000000
 -0.777999997       0.00000000
 -0.767000020       0.00000000
 -0.755999982       2.37337927E-09
 -0.745000005      -1.61121889E-08
 -0.734000027       7.37000505E-08
 -0.722999990      -2.05184051E-07
 -0.712000012       1.98596240E-07
 -0.700999975       5.40969495E-07
 -0.689999998      -1.90790774E-06
 -0.679000020       1.31481204E-06
 -0.667999983       4.23616484E-06
 -0.657000005      -9.61330079E-06
 -0.646000028      -4.30897984E-07
 -0.634999990       2.46372110E-05
 -0.624000013      -1.98063753E-05
 -0.612999976      -3.44677574E-05
 -0.601999998       5.22407536E-05
 -0.591000021       1.70610801E-05
 -0.579999983      -4.59850307E-05
 -0.569000006       3.78550467E-05
 -0.558000028      -1.19770622E-04
 -0.546999991      -1.01745514E-04
 -0.536000013       6.07279653E-04
 -0.524999976       1.15949428E-04
 -0.513999999      -1.49546156E-03
 -0.503000021      -5.52593847E-05
 -0.492000014       2.56109191E-03
 -0.481000006      -2.95877271E-05
 -0.469999999      -3.10024037E-03
 -0.458999991       1.42323814E-04
 -0.448000014       2.10990640E-03
 -0.437000006      -6.25514542E-04
 -0.425999999       8.72456119E-04
 -0.414999992       2.08543800E-03
 -0.404000014      -4.70291963E-03
 -0.393000007      -4.36610961E-03
 -0.381999999       7.01074768E-03
 -0.370999992       5.74714970E-03
 -0.360000014      -6.65857783E-03
 -0.349000007      -5.13272081E-03
 -0.338000000       3.93131003E-03
 -0.326999992       3.87952849E-03
 -0.316000015       2.75919982E-03
 -0.305000007       8.90883326E-04
 -0.294000000      -5.72654465E-03
 -0.282999992       9.17378115E-04
 -0.272000015       1.41896801E-02
 -0.261000007       2.67073512E-03
 -0.250000000      -1.17147435E-02
 -0.238999993       7.33540906E-03
 -0.228000000       2.53066923E-02
 -0.216999993       1.17432661E-02
 -0.206000000       3.81607842E-03
 -0.194999993       1.62595175E-02
 -0.184000000       2.31137853E-02
 -0.172999993       3.39166671E-02
 -0.162000000       5.68459481E-02
 -0.150999993       5.95478788E-02
 -0.140000001       5.10219000E-02
 -0.128999993       7.64480829E-02
 -0.118000001      0.119344316
 -0.107000001      0.142639354
  -9.60000008E-02  0.165320441
  -8.50000009E-02  0.203126997
  -7.40000010E-02  0.241557196
  -6.30000010E-02  0.292648196
  -5.20000011E-02  0.364696175
  -4.10000011E-02  0.427233219
  -2.99999993E-02  0.483386964
  -1.89999994E-02  0.569602251
  -8.00000038E-03  0.670615375
   3.00000003E-03  0.756643057
   1.40000004E-02  0.847351074
   2.50000004E-02  0.949328482
   3.59999985E-02   1.03969300
   4.69999984E-02   1.13265920
   5.79999983E-02   1.23782766
   6.89999983E-02   1.31075931
   7.99999982E-02   1.34053195
   9.09999982E-02   1.36761057
  0.101999998       1.38268697
  0.112999998       1.34519231
  0.123999998       1.26055253
  0.135000005       1.13311422
  0.145999998      0.939999282
  0.157000005      0.690763533
  0.167999998      0.400950998
  0.179000005       4.30385582E-02
  0.189999998     -0.391565323
  0.201000005     -0.871575236
  0.211999997      -1.39357471
  0.223000005      -1.96771467
  0.233999997      -2.56763363
  0.245000005      -3.17250228
  0.256000012      -3.78806520
  0.266999990      -4.39468288
  0.277999997      -4.95217133
  0.289000005      -5.44848537
  0.300000012      -5.88087797
  0.310999990      -6.22410965
  0.321999997      -6.45726538
  0.333000004      -6.57886648
  0.344000012      -6.57809973
  0.354999989      -6.43537617
  0.365999997      -6.15595007
  0.377000004      -5.75863266
  0.388000011      -5.24219275
  0.398999989      -4.60799360
  0.409999996      -3.88299870
  0.421000004      -3.08359933
  0.432000011      -2.20931602
  0.442999989      -1.28561044
  0.453999996     -0.346901149
  0.465000004      0.602949858
  0.476000011       1.55864429
  0.486999989       2.49915719
  0.497999996       3.42469954
  0.509000003       4.33901024
  0.519999981       5.22194529
  0.531000018       6.07296991
  0.541999996       6.91581917
  0.552999973       7.74718904
  0.564000010       8.55006313
  0.574999988       9.33098984
  0.586000025       10.0898352
  0.597000003       10.8061247
  0.607999980       11.4660845
  0.619000018       12.0541296
  0.629999995       12.5368776
  0.640999973       12.8791199
  0.652000010       13.0488796
  0.662999988       13.0133171
  0.674000025       12.7442675
  0.685000002       12.2115469
  0.695999980       11.3823557
  0.707000017       10.2408199
  0.717999995       8.78881550
  0.728999972       7.03553963
  0.740000010       5.00356150
  0.750999987       2.72942877
  0.762000024      0.257591248
  0.773000002      -2.35251093
  0.783999979      -5.02721786
  0.795000017      -7.68717909
  0.805999994      -10.2466850
  0.816999972      -12.6211987
  0.828000009      -14.7366486
  0.838999987      -16.5206852
  0.850000024      -17.9067326
  0.861000001      -18.8491955
  0.871999979      -19.3163509
  0.883000016      -19.2880936
  0.893999994      -18.7719269
  0.904999971      -17.7968254
  0.916000009      -16.3978062
  0.926999986      -14.6226931
  0.938000023      -12.5355215
  0.949000001      -10.2166834
  0.959999979      -7.75770617
  0.971000016      -5.23953009
  0.981999993      -2.73062921
  0.992999971     -0.310719818
   1.00399995       1.94469178
   1.01499999       3.98568225
   1.02600002       5.76315689
   1.03699994       7.23058891
   1.04799998       8.37834167
   1.05900002       9.21099663
   1.07000005       9.72055435
   1.08099997       9.92144394
   1.09200001       9.85138702
   1.10300004       9.53549576
   1.11399996       9.00717354
   1.12500000       8.32064056
   1.13600004       7.51064253
   1.14699996       6.60397053
   1.15799999       5.65378189
   1.16900003       4.70402908
   1.17999995       3.77130151
   1.19099998       2.88318872
   1.20200002       2.06806374
   1.21300006       1.32561910
   1.22399998      0.661198080
   1.23500001       9.89731699E-02
   1.24600005     -0.359551907
   1.25699997     -0.731206775
   1.26800001      -1.01840937
   1.27900004      -1.22399795
   1.28999996      -1.36356354
   1.30100000      -1.44443846
   1.31200004      -1.47045350
   1.32299995      -1.45778811
   1.33399999      -1.41659355
   1.34500003      -1.34503698
   1.35599995      -1.25295508
   1.36699998      -1.15531814
   1.37800002      -1.05146062
   1.38900006     -0.942054331
