 -0.959999979       0.00000000
 -0.925000012      -1.13937546E-21
 -0.889999986       2.48510359E-13
 -0.855000019       1.25691937E-13
 -0.819999993      -3.15783012E-12
 -0.785000026      -2.57107725E-12
 -0.750000000      -1.49706133E-11
 -0.714999974       2.23341658E-11
 -0.680000007      -6.23491814E-11
 -0.644999981      -9.24437540E-11
 -0.610000014      -7.81790396E-11
 -0.574999988      -2.03371556E-10
 -0.540000021      -2.69561561E-11
 -0.504999995       1.76447343E-10
 -0.469999999       1.98387662E-09
 -0.435000002      -4.97941421E-09
 -0.400000006      -1.12684475E-08
 -0.365000010       1.70348589E-08
 -0.330000013       2.59895625E-08
 -0.294999987       2.31852315E-09
 -0.259999990      -2.16640910E-08
 -0.224999994       1.39660354E-08
 -0.189999998       4.31536185E-09
 -0.155000001      -8.87083758E-08
 -0.119999997      -2.32805863E-09
  -8.50000009E-02   4.25285194E-08
  -5.00000007E-02  -5.41208180E-08
  -1.49999997E-02  -8.85173979E-09
   1.99999996E-02   7.14537585E-09
   5.49999997E-02  -2.74724208E-08
   9.00000036E-02   2.18286402E-08
  0.125000000       1.16588431E-07
  0.159999996       2.69350778E-07
  0.194999993       1.54768756E-07
  0.230000004      -2.74023876E-07
  0.264999986      -3.27797920E-07
  0.300000012       1.73353492E-08
  0.335000008      -1.52754109E-09
  0.370000005      -2.32905876E-07
  0.405000001      -8.57657625E-08
  0.439999998       1.11616473E-07
  0.474999994       7.58027752E-10
  0.509999990       2.53813567E-07
  0.545000017       6.51672906E-07
  0.579999983       3.48619437E-07
  0.615000010      -3.96882349E-08
  0.649999976      -1.78629747E-07
  0.685000002      -3.79727794E-07
  0.720000029      -7.47632043E-07
  0.754999995      -7.20516880E-07
  0.790000021       4.65677232E-07
  0.824999988       4.96457574E-07
  0.860000014      -9.50333174E-07
  0.894999981      -1.93754843E-07
  0.930000007       1.64487187E-06
  0.964999974       6.31462285E-07
   1.00000000      -1.24835663E-06
   1.03499997      -1.07714513E-07
   1.07000005       9.44725116E-07
   1.10500002      -7.74969863E-07
   1.13999999      -1.05283698E-06
   1.17499995       7.96693712E-07
   1.21000004       5.05577646E-07
   1.24500000      -9.01244846E-07
   1.27999997       1.45346505E-07
   1.31500006       1.35204857E-06
   1.35000002      -7.80445717E-08
   1.38499999      -1.11556585E-06
   1.41999996       2.89420512E-07
   1.45500004       1.02921706E-06
   1.49000001      -3.07142955E-07
   1.52499998      -7.13023894E-07
   1.55999994       6.72166550E-07
   1.59500003       8.82162624E-07
   1.63000000      -5.00242265E-07
