 -0.959999979       0.00000000
 -0.925000012      -2.45816113E-06
 -0.889999986      -2.77355575E-05
 -0.855000019      -6.90070592E-05
 -0.819999993      -1.00057368E-04
 -0.785000026      -2.12304847E-04
 -0.750000000      -5.41927875E-04
 -0.714999974      -1.12043321E-03
 -0.680000007      -2.08574696E-03
 -0.644999981      -3.83785856E-03
 -0.610000014      -6.78496016E-03
 -0.574999988      -1.12515492E-02
 -0.540000021      -1.75603032E-02
 -0.504999995      -2.56894883E-02
 -0.469999999      -3.48799899E-02
 -0.435000002      -4.35784534E-02
 -0.400000006      -4.91386279E-02
 -0.365000010      -4.76464704E-02
 -0.330000013      -3.50233354E-02
 -0.294999987      -8.82022642E-03
 -0.259999990       3.04275379E-02
 -0.224999994       7.78145418E-02
 -0.189999998      0.122908689
 -0.155000001      0.150768921
 -0.119999997      0.145247310
  -8.50000009E-02   9.27978605E-02
  -5.00000007E-02  -1.37206092E-02
  -1.49999997E-02 -0.171900317
   1.99999996E-02 -0.369693816
   5.49999997E-02 -0.588548839
   9.00000036E-02 -0.806457281
  0.125000000     -0.998884439
  0.159999996      -1.13780069
  0.194999993      -1.18886054
  0.230000004      -1.10905409
  0.264999986     -0.850736141
  0.300000012     -0.375395060
  0.335000008      0.325870305
  0.370000005       1.21190464
  0.405000001       2.18030930
  0.439999998       3.07551193
  0.474999994       3.71914434
  0.509999990       3.95428634
  0.545000017       3.68867135
  0.579999983       2.92190790
  0.615000010       1.74658215
  0.649999976      0.324280739
  0.685000002      -1.15085089
  0.720000029      -2.48659396
  0.754999995      -3.51738858
  0.790000021      -4.11893654
  0.824999988      -4.21817255
  0.860000014      -3.80524182
  0.894999981      -2.94663286
  0.930000007      -1.78896749
  0.964999974     -0.541631401
   1.00000000      0.565655828
   1.03499997       1.34215772
   1.07000005       1.69200742
   1.10500002       1.64150977
   1.13999999       1.32213783
   1.17499995      0.913564742
   1.21000004      0.570352197
   1.24500000      0.365019798
   1.27999997      0.274014503
   1.31500006      0.212222770
   1.35000002       9.62964892E-02
   1.38499999      -9.79542211E-02
   1.41999996     -0.315345258
   1.45500004     -0.449895173
   1.49000001     -0.407344013
   1.52499998     -0.166827887
   1.55999994      0.194089666
   1.59500003      0.527319908
   1.63000000      0.682979763
