 -0.800000012       0.00000000
 -0.788999975       0.00000000
 -0.777999997       0.00000000
 -0.767000020      -2.64550209E-12
 -0.755999982       1.29174937E-12
 -0.745000005       3.30687838E-11
 -0.734000027      -1.49972104E-10
 -0.722999990       1.24007943E-10
 -0.712000012       1.63793826E-10
 -0.700999975       2.31481487E-10
 -0.689999998      -1.47336932E-09
 -0.679000020       1.10780429E-09
 -0.667999983       1.90145499E-09
 -0.657000005      -3.57142871E-09
 -0.646000028       2.05026462E-09
 -0.634999990       1.71957670E-09
 -0.624000013      -6.34920649E-09
 -0.612999976      -1.45502654E-09
 -0.601999998       1.45502650E-08
 -0.591000021       4.89418017E-09
 -0.579999983      -2.60582009E-08
 -0.569000006      -3.70370379E-09
 -0.558000028       1.97089953E-08
 -0.546999991       2.43386253E-08
 -0.536000013       2.64550271E-10
 -0.524999976      -1.37566147E-07
 -0.513999999       3.99470892E-08
 -0.503000021       3.31216938E-07
 -0.492000014      -1.96296298E-07
 -0.481000006      -4.02645526E-07
 -0.469999999       3.33862431E-07
 -0.458999991       4.91269873E-07
 -0.448000014      -8.81481526E-07
 -0.437000006      -4.80423296E-07
 -0.425999999       1.75132277E-06
 -0.414999992       5.28042335E-07
 -0.404000014      -2.08941810E-06
 -0.393000007      -8.89418004E-07
 -0.381999999       1.72063494E-06
 -0.370999992       8.59259274E-07
 -0.360000014      -6.60317482E-07
 -0.349000007      -1.58888895E-06
 -0.338000000      -2.71746035E-06
 -0.326999992       8.77460297E-06
 -0.316000015       9.55873020E-06
 -0.305000007      -2.44825405E-05
 -0.294000000      -1.57629638E-05
 -0.282999992       3.70878333E-05
 -0.272000015       1.47724868E-05
 -0.261000007      -2.90370372E-05
 -0.250000000      -1.05312174E-05
 -0.238999993      -1.18518521E-07
 -0.228000000       1.57121704E-05
 -0.216999993       2.86476188E-05
 -0.206000000      -2.82412711E-05
 -0.194999993      -2.09608479E-05
 -0.184000000       9.21058199E-06
 -0.172999993      -4.00253994E-05
 -0.162000000       3.98222219E-05
 -0.150999993       1.50755557E-04
 -0.140000001      -8.18116387E-05
 -0.128999993      -2.12520637E-04
 -0.118000001       4.63238102E-05
 -0.107000001       1.64977784E-04
  -9.60000008E-02   6.85375708E-05
  -8.50000009E-02  -8.93968263E-06
  -7.40000010E-02  -2.74692080E-04
  -6.30000010E-02  -1.21904763E-04
  -5.20000011E-02   4.97371424E-04
  -4.10000011E-02   1.64977784E-04
  -2.99999993E-02  -6.07356604E-04
  -1.89999994E-02  -1.85295241E-04
  -8.00000038E-03   5.07123827E-04
   3.00000003E-03   1.94505817E-04
   1.40000004E-02  -1.92880427E-04
   2.50000004E-02  -2.50852929E-04
   3.59999985E-02  -4.93037041E-05
   4.69999984E-02   2.47602118E-04
   5.79999983E-02   2.23762967E-04
   6.89999983E-02  -3.95242329E-04
   7.99999982E-02  -3.03407414E-05
   9.09999982E-02   2.45976727E-04
  0.101999998      -6.23830711E-05
  0.112999998       1.13777780E-04
  0.123999998      -2.59521708E-04
  0.135000005      -3.76550277E-04
  0.145999998       6.79415883E-04
  0.157000005       7.93193642E-04
  0.167999998      -1.17245293E-03
  0.179000005      -7.54184148E-04
  0.189999998       9.62234917E-04
  0.201000005       3.59754515E-04
  0.211999997      -3.90095229E-05
  0.223000005       6.50158763E-05
  0.233999997      -9.96910036E-04
  0.245000005      -7.49849773E-04
  0.256000012       1.69474713E-03
  0.266999990       7.67187332E-04
  0.277999997      -9.14556615E-04
  0.289000005       9.53566196E-05
  0.300000012      -1.04025399E-04
  0.310999990      -1.58638728E-03
  0.321999997       7.54184148E-04
  0.333000004       2.08267523E-03
  0.344000012      -8.79881496E-04
  0.354999989      -1.14753016E-03
  0.365999997       1.18653974E-04
  0.377000004       1.59288888E-04
  0.388000011       1.11393863E-03
  0.398999989      -6.95669849E-04
  0.409999996      -7.19509029E-04
  0.421000004      -3.90095229E-05
  0.432000011       5.28795761E-04
  0.442999989       6.11149240E-04
  0.453999996       2.34057152E-04
  0.465000004      -6.06814829E-05
  0.476000011      -1.40434294E-03
  0.486999989       4.33439163E-05
  0.497999996       9.01553431E-04
  0.509000003       1.47369312E-04
  0.519999981      -8.23534385E-04
  0.531000018       3.64088890E-04
  0.541999996       9.01553431E-04
  0.552999973       4.68114304E-04
  0.564000010      -1.20496086E-03
  0.574999988      -3.09475558E-03
  0.586000025       1.72508787E-03
  0.597000003       4.60745813E-03
  0.607999980      -2.37307930E-03
  0.619000018      -1.27674919E-03
  0.629999995       6.20901585E-04
  0.640999973      -2.70032603E-03
  0.652000010       1.16595137E-03
  0.662999988       4.10033436E-03
  0.674000025      -2.36224337E-03
  0.685000002      -2.56162556E-03
  0.695999980       2.93871760E-03
  0.707000017      -3.29413771E-04
  0.717999995      -2.08050804E-03
  0.728999972       2.98206136E-03
  0.740000010      -4.76783083E-04
  0.750999987      -3.05574620E-03
  0.762000024       2.99506471E-03
  0.773000002       9.49231791E-04
  0.783999979      -4.28237906E-03
  0.795000017       1.57771853E-03
  0.805999994       3.49351973E-03
  0.816999972      -2.93438323E-03
  0.828000009      -1.06842758E-03
  0.838999987       2.16719578E-03
  0.850000024      -6.29570393E-04
  0.861000001      -6.21714280E-04
  0.871999979       5.14844432E-04
  0.883000016      -1.19737568E-04
  0.893999994       7.49849773E-04
  0.904999971      -6.27403206E-04
  0.916000009      -2.05991953E-03
  0.926999986       2.83360854E-03
  0.938000023       1.87245721E-03
  0.949000001      -4.71473439E-03
  0.959999979       2.51394726E-04
  0.971000016       4.54677688E-03
  0.981999993      -2.80651869E-03
  0.992999971      -1.78468577E-03
   1.00399995       3.18035996E-03
   1.01499999      -2.52911751E-03
   1.02600002      -1.07709633E-03
   1.03699994       6.15266897E-03
   1.04799998      -1.88166776E-03
   1.05900002      -6.30220538E-03
   1.07000005       4.42974828E-03
   1.08099997       2.59467517E-03
   1.09200001      -5.60436817E-03
   1.10300004       1.42574392E-03
   1.11399996       4.53404477E-03
   1.12500000      -2.43186462E-03
   1.13600004      -1.16486778E-03
   1.14699996       7.27365084E-04
   1.15799999      -2.15514074E-03
   1.16900003       1.46583712E-03
   1.17999995       2.51753652E-03
   1.19099998      -2.62738625E-03
   1.20200002      -1.22717465E-04
   1.21300006       1.65949634E-03
   1.22399998      -2.55698641E-03
   1.23500001       1.63111964E-03
   1.24600005       3.54791968E-03
   1.25699997      -4.96733142E-03
   1.26800001      -1.94524450E-03
   1.27900004       5.56928711E-03
   1.28999996      -2.06402130E-03
   1.30100000      -3.34524037E-03
   1.31200004       5.94369741E-03
   1.32299995       1.00586243E-04
   1.33399999      -6.44801697E-03
   1.34500003       2.80172168E-03
   1.35599995       3.28390906E-03
   1.36699998      -4.25513461E-03
   1.37800002       8.41293135E-04
   1.38900006       3.28903389E-03
