 -0.800000012       0.00000000
 -0.788999975       0.00000000
 -0.777999997       0.00000000
 -0.767000020      -9.87461363E-11
 -0.755999982      -4.80910346E-11
 -0.745000005      -5.11505416E-09
 -0.734000027       3.35024630E-08
 -0.722999990      -1.04261652E-07
 -0.712000012       2.23155553E-07
 -0.700999975      -1.78493906E-07
 -0.689999998      -9.40514155E-07
 -0.679000020       3.23675204E-06
 -0.667999983      -1.24091321E-06
 -0.657000005      -1.12826128E-05
 -0.646000028       1.71614229E-05
 -0.634999990       1.77606544E-05
 -0.624000013      -6.09782110E-05
 -0.612999976       2.18271975E-06
 -0.601999998       1.29966633E-04
 -0.591000021      -8.58884450E-05
 -0.579999983      -1.74986504E-04
 -0.569000006       2.49443197E-04
 -0.558000028       9.11856987E-05
 -0.546999991      -4.39847383E-04
 -0.536000013       2.28048855E-04
 -0.524999976       5.13074338E-04
 -0.513999999      -7.55405228E-04
 -0.503000021      -2.62204208E-04
 -0.492000014       1.18810742E-03
 -0.481000006      -5.19620313E-04
 -0.469999999      -1.00520288E-03
 -0.458999991       1.90353079E-03
 -0.448000014      -1.44712001E-04
 -0.437000006      -3.48510966E-03
 -0.425999999       2.08422891E-03
 -0.414999992       4.06954158E-03
 -0.404000014      -4.37066052E-03
 -0.393000007      -2.33533466E-03
 -0.381999999       6.54917676E-03
 -0.370999992      -1.69497007E-03
 -0.360000014      -7.25366129E-03
 -0.349000007       7.21978210E-03
 -0.338000000       5.17813535E-03
 -0.326999992      -1.34329926E-02
 -0.316000015      -2.65402929E-03
 -0.305000007       1.34523548E-02
 -0.294000000      -5.97007340E-03
 -0.282999992      -1.37132779E-02
 -0.272000015       9.15178098E-03
 -0.261000007       2.17271410E-03
 -0.250000000      -2.04373673E-02
 -0.238999993      -2.51520099E-03
 -0.228000000       7.93119892E-03
 -0.216999993      -2.26402041E-02
 -0.206000000      -2.53214650E-02
 -0.194999993      -2.76147225E-03
 -0.184000000      -2.41149571E-02
 -0.172999993      -4.97959889E-02
 -0.162000000      -3.37234288E-02
 -0.150999993      -4.19389606E-02
 -0.140000001      -8.38954076E-02
 -0.128999993      -9.01130736E-02
 -0.118000001      -9.16891992E-02
 -0.107000001     -0.140348136
  -9.60000008E-02 -0.178671598
  -8.50000009E-02 -0.191866517
  -7.40000010E-02 -0.244292870
  -6.30000010E-02 -0.311632067
  -5.20000011E-02 -0.348198652
  -4.10000011E-02 -0.409730643
  -2.99999993E-02 -0.508133054
  -1.89999994E-02 -0.578187525
  -8.00000038E-03 -0.646424055
   3.00000003E-03 -0.760915220
   1.40000004E-02 -0.861500025
   2.50000004E-02 -0.932421803
   3.59999985E-02  -1.04277551
   4.69999984E-02  -1.16013694
   5.79999983E-02  -1.21929002
   6.89999983E-02  -1.28053319
   7.99999982E-02  -1.36713254
   9.09999982E-02  -1.38949668
  0.101999998      -1.35724056
  0.112999998      -1.34319508
  0.123999998      -1.28173065
  0.135000005      -1.11442471
  0.145999998     -0.925787807
  0.157000005     -0.723171771
  0.167999998     -0.406619102
  0.179000005      -9.83708631E-03
  0.189999998      0.384700745
  0.201000005      0.845861077
  0.211999997       1.41215122
  0.223000005       1.97997868
  0.233999997       2.53978181
  0.245000005       3.17306662
  0.256000012       3.81749034
  0.266999990       4.38282442
  0.277999997       4.92990971
  0.289000005       5.47109175
  0.300000012       5.89499998
  0.310999990       6.20356178
  0.321999997       6.46568203
  0.333000004       6.60648870
  0.344000012       6.56377649
  0.354999989       6.42115450
  0.365999997       6.18621635
  0.377000004       5.77191591
  0.388000011       5.22371435
  0.398999989       4.62047768
  0.409999996       3.90347934
  0.421000004       3.06082320
  0.432000011       2.19597197
  0.442999989       1.30916214
  0.453999996      0.342057467
  0.465000004     -0.634694159
  0.476000011      -1.56097174
  0.486999989      -2.50408745
  0.497999996      -3.46548271
  0.509000003      -4.36037445
  0.519999981      -5.21597099
  0.531000018      -6.09957314
  0.541999996      -6.95683765
  0.552999973      -7.74744558
  0.564000010      -8.54159546
  0.574999988      -9.35024929
  0.586000025      -10.0946054
  0.597000003      -10.7775640
  0.607999980      -11.4464741
  0.619000018      -12.0444603
  0.629999995      -12.4967146
  0.640999973      -12.8251133
  0.652000010      -13.0187817
  0.662999988      -12.9872913
  0.674000025      -12.6996183
  0.685000002      -12.1732006
  0.695999980      -11.3614206
  0.707000017      -10.2203970
  0.717999995      -8.78032112
  0.728999972      -7.05147314
  0.740000010      -5.02264404
  0.750999987      -2.75068665
  0.762000024     -0.301524132
  0.773000002       2.30406809
  0.783999979       4.99079514
  0.795000017       7.63555384
  0.805999994       10.1819897
  0.816999972       12.5830164
  0.828000009       14.7166910
  0.838999987       16.4885082
  0.850000024       17.8863983
  0.861000001       18.8642101
  0.871999979       19.3369732
  0.883000016       19.3013096
  0.893999994       18.8089275
  0.904999971       17.8541565
  0.916000009       16.4366608
  0.926999986       14.6497364
  0.938000023       12.5852013
  0.949000001       10.2724257
  0.959999979       7.78381443
  0.971000016       5.25139523
  0.981999993       2.74888086
  0.992999971      0.309956491
   1.00399995      -1.96979463
   1.01499999      -3.99966216
   1.02600002      -5.77104092
   1.03699994      -7.26490355
   1.04799998      -8.42146778
   1.05900002      -9.23754978
   1.07000005      -9.75215816
   1.08099997      -9.96474838
   1.09200001      -9.87884712
   1.10300004      -9.55289364
   1.11399996      -9.03393364
   1.12500000      -8.33579922
   1.13600004      -7.50344563
   1.14699996      -6.60448647
   1.15799999      -5.66296721
   1.16900003      -4.69176531
   1.17999995      -3.74601436
   1.19099998      -2.86480093
   1.20200002      -2.03563452
   1.21300006      -1.27466178
   1.22399998     -0.626023591
   1.23500001      -7.64290020E-02
   1.24600005      0.401661247
   1.25699997      0.776122212
   1.26800001       1.04063058
   1.27900004       1.24751222
   1.28999996       1.39383996
   1.30100000       1.44719505
   1.31200004       1.45402730
   1.32299995       1.45106101
   1.33399999       1.39569044
   1.34500003       1.29486120
   1.35599995       1.21206903
   1.36699998       1.13040233
   1.37800002       1.00853908
   1.38900006      0.891978920
