 -0.959999979       0.00000000
 -0.925000012       1.56158035E-06
 -0.889999986       2.14565316E-05
 -0.855000019       6.01385946E-05
 -0.819999993       9.53960334E-05
 -0.785000026       1.86017525E-04
 -0.750000000       4.56499809E-04
 -0.714999974       9.73187271E-04
 -0.680000007       1.83675706E-03
 -0.644999981       3.34955170E-03
 -0.610000014       5.91887627E-03
 -0.574999988       9.88446455E-03
 -0.540000021       1.54537838E-02
 -0.504999995       2.25212295E-02
 -0.469999999       3.03710029E-02
 -0.435000002       3.74985561E-02
 -0.400000006       4.15614061E-02
 -0.365000010       3.96541506E-02
 -0.330000013       2.94463187E-02
 -0.294999987       1.12245120E-02
 -0.259999990      -9.85144265E-03
 -0.224999994      -2.21609715E-02
 -0.189999998      -7.86511321E-03
 -0.155000001       5.35253920E-02
 -0.119999997      0.177519485
  -8.50000009E-02  0.364041835
  -5.00000007E-02  0.586882830
  -1.49999997E-02  0.787944317
   1.99999996E-02  0.881736636
   5.49999997E-02  0.773629844
   9.00000036E-02  0.390536666
  0.125000000     -0.283290148
  0.159999996      -1.17789173
  0.194999993      -2.13109040
  0.230000004      -2.91380954
  0.264999986      -3.28645205
  0.300000012      -3.07249093
  0.335000008      -2.22516966
  0.370000005     -0.860857427
  0.405000001      0.758244395
  0.439999998       2.29084706
  0.474999994       3.41194248
  0.509999990       3.90419555
  0.545000017       3.71375704
  0.579999983       2.95281148
  0.615000010       1.85202038
  0.649999976      0.683683157
  0.685000002     -0.316323251
  0.720000029      -1.00351906
  0.754999995      -1.34356344
  0.790000021      -1.39519250
  0.824999988      -1.26865327
  0.860000014      -1.07648563
  0.894999981     -0.894041300
  0.930000007     -0.742857158
  0.964999974     -0.600977540
   1.00000000     -0.433014512
   1.03499997     -0.223792031
   1.07000005       2.71050539E-03
   1.10500002      0.190292329
   1.13999999      0.280322969
   1.17499995      0.247665584
   1.21000004      0.121278740
   1.24500000      -2.43212208E-02
   1.27999997     -0.104273520
   1.31500006      -6.69122711E-02
   1.35000002       7.85019100E-02
   1.38499999      0.265651554
   1.41999996      0.404783607
   1.45500004      0.427772790
   1.49000001      0.320532620
   1.52499998      0.126575992
   1.55999994      -7.79248029E-02
   1.59500003     -0.222016886
   1.63000000     -0.270079404
