 -0.959999979       0.00000000
 -0.925000012       0.00000000
 -0.889999986       1.75033078E-11
 -0.855000019       6.83657644E-11
 -0.819999993      -2.28073506E-12
 -0.785000026      -2.75229006E-10
 -0.750000000      -9.92688376E-10
 -0.714999974      -2.71160783E-09
 -0.680000007       4.73321382E-09
 -0.644999981       6.86809187E-09
 -0.610000014      -8.84661056E-09
 -0.574999988       2.18329729E-10
 -0.540000021       3.31488281E-09
 -0.504999995       7.74092470E-08
 -0.469999999      -2.59610768E-08
 -0.435000002      -2.03290327E-07
 -0.400000006       1.60489819E-07
 -0.365000010       2.05835036E-07
 -0.330000013      -6.98858514E-07
 -0.294999987      -1.89920186E-07
 -0.259999990       8.40972575E-07
 -0.224999994      -7.05392210E-07
 -0.189999998       6.10766904E-08
 -0.155000001       1.62916149E-06
 -0.119999997      -1.12532291E-06
  -8.50000009E-02  -9.41995211E-07
  -5.00000007E-02   1.90846686E-06
  -1.49999997E-02  -1.07964887E-07
   1.99999996E-02  -2.48843253E-06
   5.49999997E-02   1.78476387E-06
   9.00000036E-02   4.81983818E-07
  0.125000000      -3.53283349E-06
  0.159999996       1.92736638E-06
  0.194999993       2.21698406E-06
  0.230000004      -1.34325433E-06
  0.264999986      -7.18856086E-08
  0.300000012      -1.40047220E-07
  0.335000008      -3.90466340E-07
  0.370000005       2.56626237E-07
  0.405000001      -6.15753493E-07
  0.439999998       8.03547778E-07
  0.474999994       1.25598308E-06
  0.509999990      -1.78232176E-06
  0.545000017       2.06729339E-07
  0.579999983       1.83659870E-06
  0.615000010      -2.90529829E-06
  0.649999976      -1.65973177E-06
  0.685000002       4.10110579E-06
  0.720000029      -3.69634279E-07
  0.754999995      -3.63956701E-06
  0.790000021       4.18663740E-06
  0.824999988       3.28946612E-06
  0.860000014      -5.18216621E-06
  0.894999981      -1.91616095E-06
  0.930000007       3.78926006E-06
  0.964999974       7.40821406E-07
   1.00000000      -1.31576689E-06
   1.03499997      -1.46430537E-07
   1.07000005      -9.02813824E-08
   1.10500002       1.17063678E-07
   1.13999999      -4.51632587E-07
   1.17499995      -3.20140259E-07
   1.21000004       1.56896238E-06
   1.24500000      -4.14783869E-07
   1.27999997      -2.94833717E-06
   1.31500006       3.40420598E-07
   1.35000002       1.67474400E-06
   1.38499999      -8.44820477E-07
   1.41999996       7.33708077E-07
   1.45500004       1.90924902E-06
   1.49000001      -1.11395730E-06
   1.52499998      -1.28467991E-06
   1.55999994       1.12752765E-07
   1.59500003      -2.62923123E-07
   1.63000000       1.34171421E-06
