 -0.959999979       0.00000000
 -0.925000012       0.00000000
 -0.889999986      -1.45580625E-09
 -0.855000019      -1.82019040E-08
 -0.819999993      -2.89432922E-08
 -0.785000026      -5.74302774E-08
 -0.750000000      -1.58712794E-07
 -0.714999974      -3.42658581E-07
 -0.680000007      -7.74557179E-07
 -0.644999981      -1.57725060E-06
 -0.610000014      -2.64276036E-06
 -0.574999988      -4.56748285E-06
 -0.540000021      -8.51154891E-06
 -0.504999995      -1.44679134E-05
 -0.469999999      -2.20971706E-05
 -0.435000002      -3.24646899E-05
 -0.400000006      -4.57736314E-05
 -0.365000010      -6.01834254E-05
 -0.330000013      -7.57061352E-05
 -0.294999987      -9.63776547E-05
 -0.259999990      -1.32279616E-04
 -0.224999994      -2.11180202E-04
 -0.189999998      -3.94820265E-04
 -0.155000001      -7.91564933E-04
 -0.119999997      -1.57036004E-03
  -8.50000009E-02  -2.97015882E-03
  -5.00000007E-02  -5.28245792E-03
  -1.49999997E-02  -8.79869144E-03
   1.99999996E-02  -1.37264216E-02
   5.49999997E-02  -2.00732574E-02
   9.00000036E-02  -2.75163688E-02
  0.125000000      -3.53067778E-02
  0.159999996      -4.22544070E-02
  0.194999993      -4.68208529E-02
  0.230000004      -4.73349877E-02
  0.264999986      -4.23114486E-02
  0.300000012      -3.08003724E-02
  0.335000008      -1.26824947E-02
  0.370000005       1.11589599E-02
  0.405000001       3.88388522E-02
  0.439999998       6.76556602E-02
  0.474999994       9.44226161E-02
  0.509999990      0.115879893
  0.545000017      0.129127905
  0.579999983      0.132021934
  0.615000010      0.123475224
  0.649999976      0.103638060
  0.685000002       7.39391074E-02
  0.720000029       3.69831696E-02
  0.754999995      -3.68962763E-03
  0.790000021      -4.39665876E-02
  0.824999988      -7.96243846E-02
  0.860000014     -0.106857374
  0.894999981     -0.122820586
  0.930000007     -0.126105249
  0.964999974     -0.117035024
   1.00000000      -9.76740047E-02
   1.03499997      -7.14882463E-02
   1.07000005      -4.26892079E-02
   1.10500002      -1.53961116E-02
   1.13999999       7.15923123E-03
   1.17499995       2.31562238E-02
   1.21000004       3.22999135E-02
   1.24500000       3.55315506E-02
   1.27999997       3.44804674E-02
   1.31500006       3.08817364E-02
   1.35000002       2.61592809E-02
   1.38499999       2.12634224E-02
   1.41999996       1.67221054E-02
   1.45500004       1.27844075E-02
   1.49000001       9.53551475E-03
   1.52499998       6.93040248E-03
   1.55999994       4.77847457E-03
   1.59500003       2.75904313E-03
   1.63000000       5.26791729E-04
