 -0.959999979       0.00000000
 -0.925000012       0.00000000
 -0.889999986       1.45581436E-09
 -0.855000019       1.82019928E-08
 -0.819999993       2.89432567E-08
 -0.785000026       5.74301851E-08
 -0.750000000       1.58713320E-07
 -0.714999974       3.42659490E-07
 -0.680000007       7.74557179E-07
 -0.644999981       1.57725231E-06
 -0.610000014       2.64276264E-06
 -0.574999988       4.56748148E-06
 -0.540000021       8.51155983E-06
 -0.504999995       1.44679207E-05
 -0.469999999       2.20971397E-05
 -0.435000002       3.24646971E-05
 -0.400000006       4.57736860E-05
 -0.365000010       6.01833890E-05
 -0.330000013       7.57059024E-05
 -0.294999987       9.63775383E-05
 -0.259999990       1.32279965E-04
 -0.224999994       2.11180581E-04
 -0.189999998       3.94818926E-04
 -0.155000001       7.91563187E-04
 -0.119999997       1.57036015E-03
  -8.50000009E-02   2.97015510E-03
  -5.00000007E-02   5.28244860E-03
  -1.49999997E-02   8.79868772E-03
   1.99999996E-02   1.37264226E-02
   5.49999997E-02   2.00732425E-02
   9.00000036E-02   2.75163446E-02
  0.125000000       3.53067592E-02
  0.159999996       4.22543883E-02
  0.194999993       4.68208306E-02
  0.230000004       4.73349802E-02
  0.264999986       4.23114486E-02
  0.300000012       3.08003780E-02
  0.335000008       1.26825226E-02
  0.370000005      -1.11589236E-02
  0.405000001      -3.88388075E-02
  0.439999998      -6.76556081E-02
  0.474999994      -9.44225490E-02
  0.509999990     -0.115879864
  0.545000017     -0.129127830
  0.579999983     -0.132021829
  0.615000010     -0.123475194
  0.649999976     -0.103638098
  0.685000002      -7.39391446E-02
  0.720000029      -3.69832218E-02
  0.754999995       3.68948583E-03
  0.790000021       4.39664423E-02
  0.824999988       7.96243325E-02
  0.860000014      0.106857292
  0.894999981      0.122820474
  0.930000007      0.126105219
  0.964999974      0.117035061
   1.00000000       9.76740420E-02
   1.03499997       7.14882687E-02
   1.07000005       4.26892601E-02
   1.10500002       1.53961843E-02
   1.13999999      -7.15920096E-03
   1.17499995      -2.31562499E-02
   1.21000004      -3.22999172E-02
   1.24500000      -3.55315059E-02
   1.27999997      -3.44804674E-02
   1.31500006      -3.08818202E-02
   1.35000002      -2.61593424E-02
   1.38499999      -2.12634038E-02
   1.41999996      -1.67221241E-02
   1.45500004      -1.27845099E-02
   1.49000001      -9.53555759E-03
   1.52499998      -6.93033636E-03
   1.55999994      -4.77842800E-03
   1.59500003      -2.75906106E-03
   1.63000000      -5.26777294E-04
