 -0.959999979       0.00000000
 -0.925000012       0.00000000
 -0.889999986      -1.52700474E-22
 -0.855000019      -3.05400949E-22
 -0.819999993       8.07769650E-14
 -0.785000026      -1.82611928E-13
 -0.750000000      -6.94860768E-14
 -0.714999974      -1.91190618E-12
 -0.680000007      -1.95307204E-12
 -0.644999981       1.68786979E-12
 -0.610000014      -9.02323355E-12
 -0.574999988      -1.81879147E-11
 -0.540000021      -8.36103825E-11
 -0.504999995       9.67595379E-11
 -0.469999999       9.69997901E-11
 -0.435000002      -9.44643322E-11
 -0.400000006       2.10630235E-10
 -0.365000010       3.69884096E-10
 -0.330000013       2.23416605E-10
 -0.294999987      -2.30893013E-10
 -0.259999990      -3.74700992E-10
 -0.224999994       7.18154980E-10
 -0.189999998       1.84305859E-09
 -0.155000001      -1.75546272E-10
 -0.119999997       6.70828615E-10
  -8.50000009E-02   4.55052085E-09
  -5.00000007E-02  -4.10378931E-09
  -1.49999997E-02  -8.06672507E-09
   1.99999996E-02   1.46051571E-09
   5.49999997E-02  -1.36112837E-08
   9.00000036E-02  -1.39566980E-08
  0.125000000       1.37563223E-08
  0.159999996       2.43288536E-08
  0.194999993       8.21131252E-09
  0.230000004       9.86119963E-10
  0.264999986       8.63732996E-09
  0.300000012       4.69749517E-10
  0.335000008      -1.56174593E-08
  0.370000005       1.52982462E-08
  0.405000001       3.31770806E-08
  0.439999998      -2.77126566E-09
  0.474999994      -5.63264848E-08
  0.509999990      -4.33247926E-08
  0.545000017       8.43536530E-09
  0.579999983       6.16101525E-09
  0.615000010       1.39309906E-08
  0.649999976       4.30409379E-08
  0.685000002       1.69267818E-08
  0.720000029      -6.62561206E-08
  0.754999995      -7.92592729E-08
  0.790000021      -1.53749902E-08
  0.824999988       2.35643185E-08
  0.860000014      -2.27892123E-08
  0.894999981      -4.53098075E-08
  0.930000007      -1.52855204E-08
  0.964999974       1.50665294E-08
   1.00000000      -4.26689484E-09
   1.03499997      -3.84724039E-08
   1.07000005      -4.37291092E-08
   1.10500002      -2.17351914E-08
   1.13999999       2.01687866E-09
   1.17499995       2.01103703E-08
   1.21000004       3.56117162E-08
   1.24500000       5.43335972E-08
   1.27999997       2.68844698E-08
   1.31500006      -3.21720997E-08
   1.35000002      -2.51499817E-08
   1.38499999       1.68860765E-08
   1.41999996      -1.82061353E-08
   1.45500004      -6.11511979E-08
   1.49000001       2.03733488E-11
   1.52499998       5.18272749E-08
   1.55999994       8.28324243E-10
   1.59500003      -3.13458912E-08
   1.63000000      -1.30735947E-08
