 -0.800000012       0.00000000
 -0.788999975       0.00000000
 -0.777999997       0.00000000
 -0.767000020       0.00000000
 -0.755999982       1.19482823E-14
 -0.745000005       2.97155794E-14
 -0.734000027       6.66404486E-13
 -0.722999990      -2.75070461E-12
 -0.712000012       6.44784530E-12
 -0.700999975      -1.13554261E-11
 -0.689999998      -7.56093452E-12
 -0.679000020       1.10035765E-10
 -0.667999983      -1.64014496E-10
 -0.657000005      -2.87914387E-10
 -0.646000028       9.53381707E-10
 -0.634999990       1.18146937E-10
 -0.624000013      -2.86612867E-09
 -0.612999976       1.52795787E-09
 -0.601999998       5.65793856E-09
 -0.591000021      -5.93804161E-09
 -0.579999983      -7.14152870E-09
 -0.569000006       1.28283508E-08
 -0.558000028       2.61561306E-09
 -0.546999991      -1.86305797E-08
 -0.536000013       1.33447555E-08
 -0.524999976       1.77261352E-08
 -0.513999999      -3.99744700E-08
 -0.503000021      -6.27096908E-09
 -0.492000014       5.91592233E-08
 -0.481000006      -1.91716616E-08
 -0.469999999      -3.46284885E-08
 -0.458999991       7.15442781E-08
 -0.448000014      -5.26101047E-08
 -0.437000006      -1.59254299E-07
 -0.425999999       1.55799398E-07
 -0.414999992       2.18661597E-07
 -0.404000014      -2.10889738E-07
 -0.393000007      -1.11592442E-07
 -0.381999999       2.70278861E-07
 -0.370999992      -1.40297686E-07
 -0.360000014      -3.45780848E-07
 -0.349000007       3.26426090E-07
 -0.338000000       1.25037118E-07
 -0.326999992      -7.02905595E-07
 -0.316000015       9.45466070E-08
 -0.305000007       1.21314156E-06
 -0.294000000       7.03997898E-07
 -0.282999992       9.17220632E-07
 -0.272000015       2.78975517E-06
 -0.261000007       3.55494262E-06
 -0.250000000       4.05722358E-06
 -0.238999993       7.03240630E-06
 -0.228000000       1.03119473E-05
 -0.216999993       1.26318191E-05
 -0.206000000       1.76911217E-05
 -0.194999993       2.58143464E-05
 -0.184000000       3.42717649E-05
 -0.172999993       4.56470370E-05
 -0.162000000       6.30475479E-05
 -0.150999993       8.45286704E-05
 -0.140000001       1.11084519E-04
 -0.128999993       1.47791536E-04
 -0.118000001       1.95402230E-04
 -0.107000001       2.54107494E-04
  -9.60000008E-02   3.29794886E-04
  -8.50000009E-02   4.27101244E-04
  -7.40000010E-02   5.47623611E-04
  -6.30000010E-02   6.97705662E-04
  -5.20000011E-02   8.85495159E-04
  -4.10000011E-02   1.11541641E-03
  -2.99999993E-02   1.39491493E-03
  -1.89999994E-02   1.73589797E-03
  -8.00000038E-03   2.14684219E-03
   3.00000003E-03   2.63600331E-03
   1.40000004E-02   3.21723381E-03
   2.50000004E-02   3.90270562E-03
   3.59999985E-02   4.70100157E-03
   4.69999984E-02   5.62547380E-03
   5.79999983E-02   6.69032289E-03
   6.89999983E-02   7.90270697E-03
   7.99999982E-02   9.27003287E-03
   9.09999982E-02   1.08027849E-02
  0.101999998       1.25036640E-02
  0.112999998       1.43687651E-02
  0.123999998       1.63963921E-02
  0.135000005       1.85791217E-02
  0.145999998       2.08966956E-02
  0.157000005       2.33262815E-02
  0.167999998       2.58433670E-02
  0.179000005       2.84096580E-02
  0.189999998       3.09771411E-02
  0.201000005       3.34980749E-02
  0.211999997       3.59166525E-02
  0.223000005       3.81643586E-02
  0.233999997       4.01724949E-02
  0.245000005       4.18733358E-02
  0.256000012       4.31902222E-02
  0.266999990       4.40451801E-02
  0.277999997       4.43698205E-02
  0.289000005       4.40979488E-02
  0.300000012       4.31640781E-02
  0.310999990       4.15168926E-02
  0.321999997       3.91190760E-02
  0.333000004       3.59389521E-02
  0.344000012       3.19594368E-02
  0.354999989       2.71856599E-02
  0.365999997       2.16349233E-02
  0.377000004       1.53356921E-02
  0.388000011       8.33806861E-03
  0.398999989       7.08348409E-04
  0.409999996      -7.48045882E-03
  0.421000004      -1.61415655E-02
  0.432000011      -2.51730233E-02
  0.442999989      -3.44702266E-02
  0.453999996      -4.39258479E-02
  0.465000004      -5.34228347E-02
  0.476000011      -6.28429949E-02
  0.486999989      -7.20742941E-02
  0.497999996      -8.10026005E-02
  0.509000003      -8.95115882E-02
  0.519999981      -9.74929854E-02
  0.531000018     -0.104843266
  0.541999996     -0.111455455
  0.552999973     -0.117225863
  0.564000010     -0.122058868
  0.574999988     -0.125858352
  0.586000025     -0.128526390
  0.597000003     -0.129972994
  0.607999980     -0.130115598
  0.619000018     -0.128873110
  0.629999995     -0.126173258
  0.640999973     -0.121961266
  0.652000010     -0.116197444
  0.662999988     -0.108858354
  0.674000025      -9.99478474E-02
  0.685000002      -8.95006657E-02
  0.695999980      -7.75804296E-02
  0.707000017      -6.42855093E-02
  0.717999995      -4.97540124E-02
  0.728999972      -3.41600925E-02
  0.740000010      -1.77128967E-02
  0.750999987      -6.57992496E-04
  0.762000024       1.67297497E-02
  0.773000002       3.41540426E-02
  0.783999979       5.12995459E-02
  0.795000017       6.78411201E-02
  0.805999994       8.34588259E-02
  0.816999972       9.78445262E-02
  0.828000009      0.110707566
  0.838999987      0.121789888
  0.850000024      0.130877197
  0.861000001      0.137800187
  0.871999979      0.142440572
  0.883000016      0.144741222
  0.893999994      0.144706473
  0.904999971      0.142395869
  0.916000009      0.137924865
  0.926999986      0.131465033
  0.938000023      0.123232566
  0.949000001      0.113477297
  0.959999979      0.102479093
  0.971000016       9.05390754E-02
  0.981999993       7.79635236E-02
  0.992999971       6.50553107E-02
   1.00399995       5.21096997E-02
   1.01499999       3.94024476E-02
   1.02600002       2.71790829E-02
   1.03699994       1.56540517E-02
   1.04799998       5.00818295E-03
   1.05900002      -4.61881515E-03
   1.07000005      -1.31282033E-02
   1.08099997      -2.04573534E-02
   1.09200001      -2.65806187E-02
   1.10300004      -3.15087959E-02
   1.11399996      -3.52811739E-02
   1.12500000      -3.79601642E-02
   1.13600004      -3.96305397E-02
   1.14699996      -4.03933264E-02
   1.15799999      -4.03569452E-02
   1.16900003      -3.96350548E-02
   1.17999995      -3.83454971E-02
   1.19099998      -3.66028622E-02
   1.20200002      -3.45134623E-02
   1.21300006      -3.21775377E-02
   1.22399998      -2.96875276E-02
   1.23500001      -2.71220189E-02
   1.24600005      -2.45471466E-02
   1.25699997      -2.20206976E-02
   1.26800001      -1.95882954E-02
   1.27900004      -1.72819663E-02
   1.28999996      -1.51264016E-02
   1.30100000      -1.31393000E-02
   1.31200004      -1.13274585E-02
   1.32299995      -9.69171897E-03
   1.33399999      -8.23143311E-03
   1.34500003      -6.93991734E-03
   1.35599995      -5.80524374E-03
   1.36699998      -4.81737591E-03
   1.37800002      -3.96613497E-03
   1.38900006      -3.23672476E-03
