 -0.959999979       0.00000000
 -0.925000012       0.00000000
 -0.889999986      -3.03326899E-24
 -0.855000019      -6.42744924E-09
 -0.819999993      -1.02968137E-07
 -0.785000026      -2.40418728E-07
 -0.750000000      -2.50851684E-07
 -0.714999974      -4.90146476E-07
 -0.680000007      -1.62888671E-06
 -0.644999981      -3.63728850E-06
 -0.610000014      -6.36297318E-06
 -0.574999988      -1.08772001E-05
 -0.540000021      -1.89035381E-05
 -0.504999995      -3.17296253E-05
 -0.469999999      -5.02780676E-05
 -0.435000002      -7.46418518E-05
 -0.400000006      -1.03530721E-04
 -0.365000010      -1.35426992E-04
 -0.330000013      -1.69157618E-04
 -0.294999987      -2.03676173E-04
 -0.259999990      -2.42660724E-04
 -0.224999994      -3.04884190E-04
 -0.189999998      -4.35724040E-04
 -0.155000001      -7.20549200E-04
 -0.119999997      -1.30208395E-03
  -8.50000009E-02  -2.39458983E-03
  -5.00000007E-02  -4.28378163E-03
  -1.49999997E-02  -7.30203418E-03
   1.99999996E-02  -1.17639164E-02
   5.49999997E-02  -1.78512596E-02
   9.00000036E-02  -2.54581757E-02
  0.125000000      -3.40298377E-02
  0.159999996      -4.24503796E-02
  0.194999993      -4.90534864E-02
  0.230000004      -5.18142171E-02
  0.264999986      -4.87213247E-02
  0.300000012      -3.82611603E-02
  0.335000008      -1.98932867E-02
  0.370000005       5.62871573E-03
  0.405000001       3.62085290E-02
  0.439999998       6.86536133E-02
  0.474999994       9.91433188E-02
  0.509999990      0.123797603
  0.545000017      0.139223337
  0.579999983      0.142951488
  0.615000010      0.133742303
  0.649999976      0.111774080
  0.685000002       7.87135288E-02
  0.720000029       3.76350135E-02
  0.754999995      -7.25218002E-03
  0.790000021      -5.10917678E-02
  0.824999988      -8.90515447E-02
  0.860000014     -0.117061794
  0.894999981     -0.132451698
  0.930000007     -0.134327784
  0.964999974     -0.123605624
   1.00000000     -0.102703601
   1.03499997      -7.50109106E-02
   1.07000005      -4.42923978E-02
   1.10500002      -1.41671672E-02
   1.13999999       1.22721503E-02
   1.17499995       3.27054597E-02
   1.21000004       4.57442328E-02
   1.24500000       5.10331467E-02
   1.27999997       4.92637120E-02
   1.31500006       4.20324244E-02
   1.35000002       3.15071233E-02
   1.38499999       1.99505426E-02
   1.41999996       9.24080797E-03
   1.45500004       5.61710214E-04
   1.49000001      -5.63145056E-03
   1.52499998      -9.40490328E-03
   1.55999994      -1.10549526E-02
   1.59500003      -1.09098013E-02
   1.63000000      -9.31027997E-03
