 -0.800000012       0.00000000
 -0.788999975       0.00000000
 -0.777999997       0.00000000
 -0.767000020      -3.24439947E-10
 -0.755999982       1.52881263E-09
 -0.745000005       1.02393294E-09
 -0.734000027      -1.11954401E-08
 -0.722999990       1.52080670E-09
 -0.712000012       4.06723260E-08
 -0.700999975      -1.55252469E-08
 -0.689999998      -8.79246045E-08
 -0.679000020       6.82235637E-08
 -0.667999983       1.36075954E-07
 -0.657000005      -2.06092892E-07
 -0.646000028      -1.90799099E-07
 -0.634999990       4.33206708E-07
 -0.624000013       3.09542656E-07
 -0.612999976      -5.65440700E-07
 -0.601999998      -3.98161689E-07
 -0.591000021       4.24761708E-07
 -0.579999983       1.96567285E-07
 -0.569000006      -1.97227280E-07
 -0.558000028       2.81047903E-07
 -0.546999991       3.06141573E-07
 -0.536000013      -3.25070602E-07
 -0.524999976      -3.40748187E-07
 -0.513999999      -5.14175689E-08
 -0.503000021       7.45041007E-08
 -0.492000014       2.09852843E-07
 -0.481000006      -3.68199608E-07
 -0.469999999      -6.04629406E-07
 -0.458999991       1.50739982E-06
 -0.448000014       2.71834938E-06
 -0.437000006      -5.19284526E-07
 -0.425999999      -3.72819977E-06
 -0.414999992      -2.94939082E-06
 -0.404000014      -1.90683227E-06
 -0.393000007      -2.36522055E-06
 -0.381999999      -2.18480250E-06
 -0.370999992      -3.61615912E-06
 -0.360000014      -8.12587223E-06
 -0.349000007      -1.09736611E-05
 -0.338000000      -1.15628864E-05
 -0.326999992      -1.54702284E-05
 -0.316000015      -2.39311557E-05
 -0.305000007      -3.48395151E-05
 -0.294000000      -4.78185866E-05
 -0.282999992      -6.10950956E-05
 -0.272000015      -7.52295527E-05
 -0.261000007      -9.76568990E-05
 -0.250000000      -1.31787689E-04
 -0.238999993      -1.72788437E-04
 -0.228000000      -2.20504895E-04
 -0.216999993      -2.80687877E-04
 -0.206000000      -3.55271390E-04
 -0.194999993      -4.46591264E-04
 -0.184000000      -5.62161615E-04
 -0.172999993      -7.05431856E-04
 -0.162000000      -8.74536752E-04
 -0.150999993      -1.07293134E-03
 -0.140000001      -1.30901043E-03
 -0.128999993      -1.58795796E-03
 -0.118000001      -1.91240350E-03
 -0.107000001      -2.28592544E-03
  -9.60000008E-02  -2.71195942E-03
  -8.50000009E-02  -3.19325854E-03
  -7.40000010E-02  -3.73223517E-03
  -6.30000010E-02  -4.33005253E-03
  -5.20000011E-02  -4.98711877E-03
  -4.10000011E-02  -5.70337381E-03
  -2.99999993E-02  -6.47557154E-03
  -1.89999994E-02  -7.29636615E-03
  -8.00000038E-03  -8.15804396E-03
   3.00000003E-03  -9.05479398E-03
   1.40000004E-02  -9.98009183E-03
   2.50000004E-02  -1.09251961E-02
   3.59999985E-02  -1.18825166E-02
   4.69999984E-02  -1.28475558E-02
   5.79999983E-02  -1.38168279E-02
   6.89999983E-02  -1.47901047E-02
   7.99999982E-02  -1.57779288E-02
   9.09999982E-02  -1.68030355E-02
  0.101999998      -1.78959817E-02
  0.112999998      -1.90967880E-02
  0.123999998      -2.04610489E-02
  0.135000005      -2.20608115E-02
  0.145999998      -2.39834320E-02
  0.157000005      -2.63341088E-02
  0.167999998      -2.92358920E-02
  0.179000005      -3.28232422E-02
  0.189999998      -3.72367054E-02
  0.201000005      -4.26225588E-02
  0.211999997      -4.91290800E-02
  0.223000005      -5.68950921E-02
  0.233999997      -6.60391673E-02
  0.245000005      -7.66528845E-02
  0.256000012      -8.87902156E-02
  0.266999990     -0.102453567
  0.277999997     -0.117584825
  0.289000005     -0.134056315
  0.300000012     -0.151658013
  0.310999990     -0.170091227
  0.321999997     -0.188970685
  0.333000004     -0.207823306
  0.344000012     -0.226086795
  0.354999989     -0.243118152
  0.365999997     -0.258207649
  0.377000004     -0.270597875
  0.388000011     -0.279510349
  0.398999989     -0.284170866
  0.409999996     -0.283832818
  0.421000004     -0.277811080
  0.432000011     -0.265520006
  0.442999989     -0.246502236
  0.453999996     -0.220459759
  0.465000004     -0.187287822
  0.476000011     -0.147093341
  0.486999989     -0.100202449
  0.497999996      -4.71730530E-02
  0.509000003       1.12016089E-02
  0.519999981       7.39102587E-02
  0.531000018      0.139746845
  0.541999996      0.207334727
  0.552999973      0.275165200
  0.564000010      0.341648847
  0.574999988      0.405166656
  0.586000025      0.464120179
  0.597000003      0.516987383
  0.607999980      0.562380552
  0.619000018      0.599096656
  0.629999995      0.626156569
  0.640999973      0.642841339
  0.652000010      0.648721397
  0.662999988      0.643671691
  0.674000025      0.627871037
  0.685000002      0.601795316
  0.695999980      0.566198468
  0.707000017      0.522078216
  0.717999995      0.470638037
  0.728999972      0.413245827
  0.740000010      0.351382315
  0.750999987      0.286584824
  0.762000024      0.220395893
  0.773000002      0.154314861
  0.783999979       8.97519961E-02
  0.795000017       2.79880725E-02
  0.805999994      -2.98583899E-02
  0.816999972      -8.28542188E-02
  0.828000009     -0.130266085
  0.838999987     -0.171569437
  0.850000024     -0.206447557
  0.861000001     -0.234779209
  0.871999979     -0.256624103
  0.883000016     -0.272205979
  0.893999994     -0.281886458
  0.904999971     -0.286135465
  0.916000009     -0.285507500
  0.926999986     -0.280616164
  0.938000023     -0.272104055
  0.949000001     -0.260618806
  0.959999979     -0.246796265
  0.971000016     -0.231243640
  0.981999993     -0.214522928
  0.992999971     -0.197139561
   1.00399995     -0.179538220
   1.01499999     -0.162101537
   1.02600002     -0.145146713
   1.03699994     -0.128923818
   1.04799998     -0.113622576
   1.05900002      -9.93805975E-02
   1.07000005      -8.62852558E-02
   1.08099997      -7.43777528E-02
   1.09200001      -6.36641532E-02
   1.10300004      -5.41221872E-02
   1.11399996      -4.57030609E-02
   1.12500000      -3.83390896E-02
   1.13600004      -3.19536105E-02
   1.14699996      -2.64631491E-02
   1.15799999      -2.17771716E-02
   1.16900003      -1.78037919E-02
   1.17999995      -1.44565236E-02
   1.19099998      -1.16549311E-02
   1.20200002      -9.32281464E-03
   1.21300006      -7.39020621E-03
   1.22399998      -5.79639664E-03
   1.23500001      -4.48871311E-03
   1.24600005      -3.42068239E-03
   1.25699997      -2.55359523E-03
   1.26800001      -1.85663032E-03
   1.27900004      -1.30362983E-03
   1.28999996      -8.71911878E-04
   1.30100000      -5.42690861E-04
   1.31200004      -2.99705716E-04
   1.32299995      -1.28809508E-04
   1.33399999      -1.84515775E-05
   1.34500003       4.22387202E-05
   1.35599995       6.40805883E-05
   1.36699998       5.59976106E-05
   1.37800002       2.64141654E-05
   1.38900006      -1.50867072E-05
