 -0.959999979       0.00000000
 -0.925000012       0.00000000
 -0.889999986      -3.07392476E-08
 -0.855000019      -1.33048161E-07
 -0.819999993      -4.72039147E-07
 -0.785000026      -1.22133815E-06
 -0.750000000      -2.26733005E-06
 -0.714999974      -4.22865787E-06
 -0.680000007      -9.72140606E-06
 -0.644999981      -2.13294788E-05
 -0.610000014      -3.99967139E-05
 -0.574999988      -6.98841104E-05
 -0.540000021      -1.21162440E-04
 -0.504999995      -2.02196912E-04
 -0.469999999      -3.14582721E-04
 -0.435000002      -4.58697177E-04
 -0.400000006      -6.31098403E-04
 -0.365000010      -8.10643134E-04
 -0.330000013      -9.56679403E-04
 -0.294999987      -1.01803278E-03
 -0.259999990      -9.32917930E-04
 -0.224999994      -6.30617433E-04
 -0.189999998      -4.69431907E-05
 -0.155000001       8.72384699E-04
 -0.119999997       2.19347980E-03
  -8.50000009E-02   4.01595095E-03
  -5.00000007E-02   6.48347801E-03
  -1.49999997E-02   9.78192966E-03
   1.99999996E-02   1.40857315E-02
   5.49999997E-02   1.94147322E-02
   9.00000036E-02   2.54207198E-02
  0.125000000       3.11524328E-02
  0.159999996       3.48618925E-02
  0.194999993       3.39568518E-02
  0.230000004       2.52148751E-02
  0.264999986       5.32193668E-03
  0.300000012      -2.82738227E-02
  0.335000008      -7.63032362E-02
  0.370000005     -0.136659086
  0.405000001     -0.203750730
  0.439999998     -0.268540114
  0.474999994     -0.319472790
  0.509999990     -0.344312906
  0.545000017     -0.332580566
  0.579999983     -0.278043956
  0.615000010     -0.180664390
  0.649999976      -4.74790782E-02
  0.685000002      0.107892029
  0.720000029      0.267094851
  0.754999995      0.409882456
  0.790000021      0.517404974
  0.824999988      0.575359702
  0.860000014      0.576407135
  0.894999981      0.521353900
  0.930000007      0.418861657
  0.964999974      0.283780605
   1.00000000      0.134484604
   1.03499997      -1.02391774E-02
   1.07000005     -0.134110123
   1.10500002     -0.225523174
   1.13999999     -0.278671145
   1.17499995     -0.293636501
   1.21000004     -0.275627792
   1.24500000     -0.233554631
   1.27999997     -0.178169087
   1.31500006     -0.120079301
   1.35000002      -6.79744780E-02
   1.38499999      -2.73938775E-02
   1.41999996      -3.28126654E-04
   1.45500004       1.42563274E-02
   1.49000001       1.92257892E-02
   1.52499998       1.79423988E-02
   1.55999994       1.32883005E-02
   1.59500003       7.29739014E-03
   1.63000000       1.30297721E-03
