 -0.959999979       0.00000000
 -0.925000012       0.00000000
 -0.889999986       1.20888895E-13
 -0.855000019      -2.82818127E-11
 -0.819999993       7.57428703E-11
 -0.785000026       3.50844423E-11
 -0.750000000       4.53392823E-10
 -0.714999974       9.16404064E-10
 -0.680000007       1.74604098E-09
 -0.644999981       5.05791675E-09
 -0.610000014       6.30923258E-10
 -0.574999988      -1.46916346E-08
 -0.540000021      -2.04644781E-08
 -0.504999995       2.19919478E-08
 -0.469999999      -4.77490438E-08
 -0.435000002      -1.03789894E-07
 -0.400000006       6.43349125E-08
 -0.365000010       7.77096076E-08
 -0.330000013      -3.96477056E-08
 -0.294999987       7.58615357E-08
 -0.259999990      -3.54076128E-08
 -0.224999994      -7.27378762E-08
 -0.189999998       2.79186398E-08
 -0.155000001       2.99964313E-07
 -0.119999997       3.04942120E-07
  -8.50000009E-02   2.29805881E-08
  -5.00000007E-02   1.79902315E-07
  -1.49999997E-02  -8.79422316E-07
   1.99999996E-02  -1.35523101E-06
   5.49999997E-02   1.59242563E-06
   9.00000036E-02   2.35151992E-06
  0.125000000      -1.51248173E-06
  0.159999996      -1.90189746E-06
  0.194999993      -1.10231916E-07
  0.230000004      -3.69195789E-07
  0.264999986       1.00469265E-06
  0.300000012       1.18685443E-06
  0.335000008      -1.39918643E-06
  0.370000005      -1.35075265E-06
  0.405000001       2.71075265E-07
  0.439999998       3.65132138E-07
  0.474999994       3.86575806E-07
  0.509999990       7.81567849E-07
  0.545000017       7.77328296E-07
  0.579999983       2.36181123E-07
  0.615000010      -1.38052894E-06
  0.649999976      -2.29521629E-06
  0.685000002       5.55278291E-07
  0.720000029       3.36358448E-06
  0.754999995       7.23403062E-08
  0.790000021      -3.07085952E-06
  0.824999988       1.50880442E-06
  0.860000014       3.31196338E-06
  0.894999981      -3.16107366E-06
  0.930000007      -3.67984535E-06
  0.964999974       3.47027571E-06
   1.00000000       2.95832683E-06
   1.03499997      -2.64850155E-06
   1.07000005      -2.54156483E-08
   1.10500002       3.33277853E-06
   1.13999999      -2.21648520E-06
   1.17499995      -4.56978432E-06
   1.21000004       2.50067615E-06
   1.24500000       4.23435540E-06
   1.27999997      -2.73156979E-06
   1.31500006      -3.36803782E-06
   1.35000002       3.36800645E-06
   1.38499999       2.81163693E-06
   1.41999996      -4.43532963E-06
   1.45500004      -3.50931032E-06
   1.49000001       4.27750501E-06
   1.52499998       4.16378543E-06
   1.55999994      -2.35314928E-06
   1.59500003      -2.16412718E-06
   1.63000000       1.89700381E-06
