 -0.959999979       0.00000000
 -0.925000012       0.00000000
 -0.889999986       0.00000000
 -0.855000019       8.46222337E-15
 -0.819999993      -1.97972693E-12
 -0.785000026       5.31046257E-12
 -0.750000000       4.76183058E-13
 -0.714999974       3.70479585E-11
 -0.680000007       6.46244655E-11
 -0.644999981       1.59270833E-10
 -0.610000014       4.18678647E-10
 -0.574999988       2.03435463E-10
 -0.540000021      -6.09735817E-10
 -0.504999995      -1.22907817E-09
 -0.469999999       9.29700428E-10
 -0.435000002      -4.57151117E-09
 -0.400000006      -6.33559161E-09
 -0.365000010      -6.80668369E-11
 -0.330000013      -8.95919561E-10
 -0.294999987      -2.84340640E-09
 -0.259999990       4.41438797E-09
 -0.224999994      -5.32193933E-09
 -0.189999998      -6.77264356E-10
 -0.155000001      -3.36763728E-09
 -0.119999997       2.03202362E-08
  -8.50000009E-02   1.79783122E-08
  -5.00000007E-02   2.19288800E-08
  -1.49999997E-02   3.05714778E-08
   1.99999996E-02  -3.96306881E-08
   5.49999997E-02  -6.42946958E-08
   9.00000036E-02   7.18391036E-08
  0.125000000       1.00311702E-07
  0.159999996      -3.40346133E-08
  0.194999993      -3.28211165E-08
  0.230000004      -4.17508410E-08
  0.264999986      -5.86648241E-08
  0.300000012       2.85776469E-08
  0.335000008       2.44149803E-08
  0.370000005      -6.93653988E-08
  0.405000001      -7.01377090E-08
  0.439999998      -5.03901276E-08
  0.474999994      -4.45784565E-08
  0.509999990      -2.33298145E-08
  0.545000017       1.01312816E-08
  0.579999983       3.10831823E-08
  0.615000010       2.66639653E-08
  0.649999976      -6.55538486E-08
  0.685000002      -1.34001183E-07
  0.720000029      -2.66843703E-08
  0.754999995       1.01449736E-07
  0.790000021      -2.16205507E-08
  0.824999988      -1.13510431E-07
  0.860000014       8.39957650E-08
  0.894999981       1.18327016E-07
  0.930000007      -1.37279386E-07
  0.964999974      -1.39262170E-07
   1.00000000       1.05639913E-07
   1.03499997       6.78207073E-08
   1.07000005      -7.97552104E-08
   1.10500002       6.60416148E-08
   1.13999999       1.53539276E-07
   1.17499995      -8.91123548E-08
   1.21000004      -1.66345615E-07
   1.24500000       8.59349925E-08
   1.27999997       1.30059277E-07
   1.31500006      -1.05274900E-07
   1.35000002      -1.05703371E-07
   1.38499999       1.30485546E-07
   1.41999996       9.11112181E-08
   1.45500004      -1.79987509E-07
   1.49000001      -1.54540515E-07
   1.52499998       1.19437843E-07
   1.55999994       1.36924456E-07
   1.59500003      -4.52826185E-08
   1.63000000      -1.45644421E-08
