 -0.959999979       0.00000000
 -0.925000012      -2.45816113E-06
 -0.889999986      -2.77355612E-05
 -0.855000019      -6.90070665E-05
 -0.819999993      -1.00057347E-04
 -0.785000026      -2.12304789E-04
 -0.750000000      -5.41927933E-04
 -0.714999974      -1.12043309E-03
 -0.680000007      -2.08574673E-03
 -0.644999981      -3.83785833E-03
 -0.610000014      -6.78496063E-03
 -0.574999988      -1.12515520E-02
 -0.540000021      -1.75603013E-02
 -0.504999995      -2.56894827E-02
 -0.469999999      -3.48799899E-02
 -0.435000002      -4.35784608E-02
 -0.400000006      -4.91386391E-02
 -0.365000010      -4.76464331E-02
 -0.330000013      -3.50233577E-02
 -0.294999987      -8.82027112E-03
 -0.259999990       3.04276496E-02
 -0.224999994       7.78145716E-02
 -0.189999998      0.122908480
 -0.155000001      0.150768876
 -0.119999997      0.145247370
  -8.50000009E-02   9.27976221E-02
  -5.00000007E-02  -1.37205729E-02
  -1.49999997E-02 -0.171899393
   1.99999996E-02 -0.369693369
   5.49999997E-02 -0.588549614
   9.00000036E-02 -0.806457937
  0.125000000     -0.998884499
  0.159999996      -1.13780046
  0.194999993      -1.18886006
  0.230000004      -1.10905313
  0.264999986     -0.850735366
  0.300000012     -0.375395358
  0.335000008      0.325868726
  0.370000005       1.21190369
  0.405000001       2.18031096
  0.439999998       3.07551432
  0.474999994       3.71914387
  0.509999990       3.95428324
  0.545000017       3.68866920
  0.579999983       2.92190957
  0.615000010       1.74658597
  0.649999976      0.324282318
  0.685000002      -1.15085161
  0.720000029      -2.48659515
  0.754999995      -3.51738858
  0.790000021      -4.11893559
  0.824999988      -4.21817303
  0.860000014      -3.80524397
  0.894999981      -2.94663477
  0.930000007      -1.78896606
  0.964999974     -0.541628718
   1.00000000      0.565655529
   1.03499997       1.34215415
   1.07000005       1.69200432
   1.10500002       1.64151096
   1.13999999       1.32214272
   1.17499995      0.913568079
   1.21000004      0.570350051
   1.24500000      0.365015715
   1.27999997      0.274013966
   1.31500006      0.212225780
   1.35000002       9.62990522E-02
   1.38499999      -9.79550555E-02
   1.41999996     -0.315348625
   1.45500004     -0.449897140
   1.49000001     -0.407342374
   1.52499998     -0.166824952
   1.55999994      0.194090828
   1.59500003      0.527318835
   1.63000000      0.682977676
