 -0.800000012       0.00000000
 -0.788999975       0.00000000
 -0.777999997       1.81151216E-22
 -0.767000020       3.14049900E-14
 -0.755999982      -2.54002514E-14
 -0.745000005       2.39010439E-12
 -0.734000027      -3.55271476E-12
 -0.722999990      -4.37862854E-12
 -0.712000012       1.19674947E-11
 -0.700999975       1.97385632E-11
 -0.689999998      -7.90574273E-11
 -0.679000020       8.21353263E-11
 -0.667999983       1.00986240E-10
 -0.657000005      -9.49200163E-11
 -0.646000028      -3.07764758E-10
 -0.634999990       3.86745663E-10
 -0.624000013       1.95678709E-10
 -0.612999976      -5.64561398E-10
 -0.601999998       1.15782162E-10
 -0.591000021       1.67546171E-10
 -0.579999983       4.57685730E-11
 -0.569000006       2.18659146E-10
 -0.558000028      -9.55598711E-10
 -0.546999991      -1.15238152E-10
 -0.536000013       2.00343164E-09
 -0.524999976      -1.09057241E-09
 -0.513999999      -1.78584036E-09
 -0.503000021       6.45728937E-09
 -0.492000014      -1.33906408E-09
 -0.481000006      -1.32581910E-08
 -0.469999999       4.06041822E-09
 -0.458999991       1.62971983E-08
 -0.448000014      -7.10942194E-09
 -0.437000006      -1.87252187E-08
 -0.425999999       3.10435482E-08
 -0.414999992       2.52041339E-08
 -0.404000014      -8.92357406E-08
 -0.393000007      -4.80380926E-08
 -0.381999999       1.62597246E-07
 -0.370999992       6.86825103E-08
 -0.360000014      -2.18573859E-07
 -0.349000007       9.05869015E-08
 -0.338000000       8.35238865E-08
 -0.326999992      -4.17307234E-07
 -0.316000015       3.09047920E-07
 -0.305000007       7.08720904E-07
 -0.294000000      -1.10029464E-06
 -0.282999992      -3.88166768E-07
 -0.272000015       1.79225606E-06
 -0.261000007      -8.24315009E-07
 -0.250000000      -1.31317211E-06
 -0.238999993       2.16802255E-06
 -0.228000000      -2.34448933E-07
 -0.216999993      -2.15886280E-06
 -0.206000000       4.63010764E-07
 -0.194999993       1.32929688E-06
 -0.184000000       8.24984511E-07
 -0.172999993      -8.17772559E-07
 -0.162000000       2.58906471E-06
 -0.150999993      -6.28073076E-06
 -0.140000001      -3.74590809E-06
 -0.128999993       1.29865684E-05
 -0.118000001      -2.36778146E-06
 -0.107000001      -9.20621915E-06
  -9.60000008E-02  -3.03933007E-07
  -8.50000009E-02   1.93784690E-05
  -7.40000010E-02  -3.66764311E-06
  -6.30000010E-02  -2.96636808E-05
  -5.20000011E-02   7.71909708E-06
  -4.10000011E-02   3.88425360E-05
  -2.99999993E-02  -1.02231133E-05
  -1.89999994E-02  -6.47643465E-05
  -8.00000038E-03   2.06243949E-05
   3.00000003E-03   9.63894054E-05
   1.40000004E-02  -3.35923687E-05
   2.50000004E-02  -8.75613114E-05
   3.59999985E-02   3.13120872E-05
   4.69999984E-02   6.31977164E-05
   5.79999983E-02  -1.36364115E-05
   6.89999983E-02  -6.75306219E-05
   7.99999982E-02  -2.13747226E-05
   9.09999982E-02   1.08544649E-04
  0.101999998       2.36189626E-05
  0.112999998      -1.19641714E-04
  0.123999998       1.45032391E-05
  0.135000005       4.79542032E-05
  0.145999998      -3.37888087E-05
  0.157000005      -5.18409342E-06
  0.167999998       5.97648104E-05
  0.179000005      -1.11385525E-04
  0.189999998       8.24230883E-05
  0.201000005       1.38330855E-04
  0.211999997      -1.51586704E-04
  0.223000005      -9.42953993E-05
  0.233999997       2.31041035E-04
  0.245000005      -1.21969264E-04
  0.256000012      -2.61220674E-04
  0.266999990       2.28977791E-04
  0.277999997       1.93208223E-04
  0.289000005      -2.19923531E-04
  0.300000012       2.98448031E-05
  0.310999990       2.13865249E-04
  0.321999997      -1.16648829E-04
  0.333000004      -2.59292952E-04
  0.344000012      -8.53263191E-06
  0.354999989       1.35247064E-05
  0.365999997       4.41013777E-04
  0.377000004       1.97411733E-04
  0.388000011      -5.81095926E-04
  0.398999989      -2.92655110E-04
  0.409999996       5.31068596E-04
  0.421000004       8.70955191E-05
  0.432000011      -3.51413997E-04
  0.442999989       2.34264997E-04
  0.453999996       2.32803752E-04
  0.465000004      -5.79207670E-04
  0.476000011      -3.69967747E-04
  0.486999989       6.75796065E-04
  0.497999996       5.61552471E-04
  0.509000003      -4.79953160E-04
  0.519999981      -4.50528169E-04
  0.531000018       2.53041624E-04
  0.541999996       3.68226494E-04
  0.552999973      -2.98301020E-04
  0.564000010      -1.80182629E-04
  0.574999988      -5.15019456E-05
  0.586000025       3.71503294E-04
  0.597000003       3.82775033E-05
  0.607999980      -1.12364207E-04
  0.619000018      -3.62845662E-04
  0.629999995       1.71101769E-04
  0.640999973       7.53440778E-04
  0.652000010      -5.29408047E-04
  0.662999988      -1.02240383E-03
  0.674000025       5.87098941E-04
  0.685000002       7.19369913E-04
  0.695999980      -2.20610556E-04
  0.707000017      -1.20407596E-04
  0.717999995       3.50701972E-04
  0.728999972      -2.31259488E-04
  0.740000010      -1.43790501E-04
  0.750999987      -5.68418436E-05
  0.762000024      -2.81675108E-04
  0.773000002       1.38137941E-04
  0.783999979       4.53034299E-04
  0.795000017      -8.33243685E-05
  0.805999994      -3.82277940E-04
  0.816999972      -6.73625400E-05
  0.828000009       1.40109783E-04
  0.838999987       1.00308622E-04
  0.850000024       3.84072810E-05
  0.861000001      -1.75230907E-05
  0.871999979       1.58675379E-04
  0.883000016       1.70212079E-04
  0.893999994      -2.15224703E-04
  0.904999971      -1.72960805E-04
  0.916000009      -2.66931820E-05
  0.926999986      -1.31044028E-04
  0.938000023       2.06485594E-04
  0.949000001       1.02292790E-04
  0.959999979      -4.42770339E-04
  0.971000016       5.82399480E-05
  0.981999993       6.02262444E-04
  0.992999971      -6.08589762E-05
   1.00399995      -5.46390016E-04
   1.01499999       4.46308288E-04
   1.02600002       6.87530381E-04
   1.03699994      -5.72448771E-04
   1.04799998      -8.88117356E-04
   1.05900002       1.99868940E-04
   1.07000005       5.48068027E-04
   1.08099997      -1.24143058E-04
   1.09200001      -3.62162507E-04
   1.10300004       3.91346519E-04
   1.11399996       6.96182135E-04
   1.12500000      -3.99719924E-04
   1.13600004      -8.52262485E-04
   1.14699996       2.88936921E-04
   1.15799999       4.27902385E-04
   1.16900003      -5.70903590E-04
   1.17999995       3.35537588E-05
   1.19099998       8.22217087E-04
   1.20200002      -2.77228537E-04
   1.21300006      -5.29950950E-04
   1.22399998       6.34533237E-04
   1.23500001       1.67476581E-04
   1.24600005      -7.69698119E-04
   1.25699997       7.04557824E-05
   1.26800001       4.89004364E-04
   1.27900004      -2.09680889E-04
   1.28999996      -4.54393521E-05
   1.30100000       2.52183905E-04
   1.31200004      -1.98855967E-04
   1.32299995      -2.24107396E-04
   1.33399999      -8.88403883E-05
   1.34500003      -1.75803652E-04
   1.35599995       3.34356446E-04
   1.36699998       5.01215633E-04
   1.37800002      -3.04254179E-04
   1.38900006      -4.13001486E-04
