 -0.959999979       0.00000000
 -0.925000012      -2.07972288E-08
 -0.889999986      -2.60027065E-07
 -0.855000019      -3.92678146E-07
 -0.819999993      -5.60406590E-07
 -0.785000026      -1.85385045E-06
 -0.750000000      -4.07468860E-06
 -0.714999974      -8.79776871E-06
 -0.680000007      -1.76370322E-05
 -0.644999981      -2.66886800E-05
 -0.610000014      -4.27176019E-05
 -0.574999988      -8.38398555E-05
 -0.540000021      -1.41434823E-04
 -0.504999995      -1.94079519E-04
 -0.469999999      -2.57096719E-04
 -0.435000002      -3.38238140E-04
 -0.400000006      -3.95980751E-04
 -0.365000010      -4.27599618E-04
 -0.330000013      -5.17063483E-04
 -0.294999987      -8.08203535E-04
 -0.259999990      -1.64003880E-03
 -0.224999994      -3.75057454E-03
 -0.189999998      -8.29120167E-03
 -0.155000001      -1.67934429E-02
 -0.119999997      -3.11227664E-02
  -8.50000009E-02  -5.30298688E-02
  -5.00000007E-02  -8.32647532E-02
  -1.49999997E-02 -0.120628290
   1.99999996E-02 -0.161065385
   5.49999997E-02 -0.196999043
   9.00000036E-02 -0.217621475
  0.125000000     -0.210543573
  0.159999996     -0.164487004
  0.194999993      -7.25796148E-02
  0.230000004       6.44199625E-02
  0.264999986      0.236208394
  0.300000012      0.423270673
  0.335000008      0.599419594
  0.370000005      0.736019492
  0.405000001      0.807095349
  0.439999998      0.794053912
  0.474999994      0.688918591
  0.509999990      0.495789707
  0.545000017      0.230599195
  0.579999983      -8.07523280E-02
  0.615000010     -0.405482978
  0.649999976     -0.707659721
  0.685000002     -0.952213645
  0.720000029      -1.10898054
  0.754999995      -1.15642369
  0.790000021      -1.08478320
  0.824999988     -0.898440719
  0.860000014     -0.617087901
  0.894999981     -0.274969429
  0.930000007       8.26500729E-02
  0.964999974      0.406160653
   1.00000000      0.650669575
   1.03499997      0.785497844
   1.07000005      0.801315665
   1.10500002      0.712119937
   1.13999999      0.550747573
   1.17499995      0.359152615
   1.21000004      0.176790237
   1.24500000       3.11506614E-02
   1.27999997      -6.64258674E-02
   1.31500006     -0.118873902
   1.35000002     -0.137404859
   1.38499999     -0.134817541
   1.41999996     -0.121128187
   1.45500004     -0.102664568
   1.49000001      -8.36297348E-02
   1.52499998      -6.79592416E-02
   1.55999994      -5.95901310E-02
   1.59500003      -6.07373230E-02
   1.63000000      -6.95423111E-02
