 -0.959999979       0.00000000
 -0.925000012       8.36445997E-06
 -0.889999986       1.83284428E-05
 -0.855000019       3.63238760E-05
 -0.819999993       8.53538659E-05
 -0.785000026       1.92370135E-04
 -0.750000000       4.05331375E-04
 -0.714999974       8.16899643E-04
 -0.680000007       1.57406798E-03
 -0.644999981       2.89584906E-03
 -0.610000014       5.08032506E-03
 -0.574999988       8.47467687E-03
 -0.540000021       1.34195080E-02
 -0.504999995       2.01355796E-02
 -0.469999999       2.85225660E-02
 -0.435000002       3.79547067E-02
 -0.400000006       4.71604690E-02
 -0.365000010       5.42054735E-02
 -0.330000013       5.66958599E-02
 -0.294999987       5.23566939E-02
 -0.259999990       3.98750342E-02
 -0.224999994       1.96783096E-02
 -0.189999998      -5.63498074E-03
 -0.155000001      -3.14888731E-02
 -0.119999997      -5.24437614E-02
  -8.50000009E-02  -6.41697496E-02
  -5.00000007E-02  -6.56382665E-02
  -1.49999997E-02  -6.06327392E-02
   1.99999996E-02  -5.77871501E-02
   5.49999997E-02  -6.86518773E-02
   9.00000036E-02 -0.103884272
  0.125000000     -0.168564960
  0.159999996     -0.258308381
  0.194999993     -0.357824236
  0.230000004     -0.442962289
  0.264999986     -0.486205190
  0.300000012     -0.464284211
  0.335000008     -0.365582317
  0.370000005     -0.194806695
  0.405000001       2.67939828E-02
  0.439999998      0.265925854
  0.474999994      0.485077381
  0.509999990      0.651168466
  0.545000017      0.742422462
  0.579999983      0.751725078
  0.615000010      0.686074018
  0.649999976      0.563027084
  0.685000002      0.405788034
  0.720000029      0.238402426
  0.754999995       8.18811655E-02
  0.790000021      -4.84083779E-02
  0.824999988     -0.143976972
  0.860000014     -0.203166381
  0.894999981     -0.230001658
  0.930000007     -0.232136667
  0.964999974     -0.218355283
   1.00000000     -0.196451932
   1.03499997     -0.172147483
   1.07000005     -0.149030581
   1.10500002     -0.129035130
   1.13999999     -0.112923659
   1.17499995     -0.100425772
   1.21000004      -9.00539532E-02
   1.24500000      -7.90986195E-02
   1.27999997      -6.43713176E-02
   1.31500006      -4.36682478E-02
   1.35000002      -1.72184184E-02
   1.38499999       1.17939925E-02
   1.41999996       3.81112918E-02
   1.45500004       5.64125106E-02
   1.49000001       6.34851307E-02
   1.52499998       5.94097190E-02
   1.55999994       4.71389815E-02
   1.59500003       3.07911672E-02
   1.63000000       1.37360152E-02
