 -0.959999979       0.00000000
 -0.925000012      -1.15264296E-21
 -0.889999986       2.55151206E-13
 -0.855000019      -4.74538249E-14
 -0.819999993      -5.60987931E-12
 -0.785000026      -9.85590429E-12
 -0.750000000      -5.07264890E-12
 -0.714999974      -7.24799777E-12
 -0.680000007      -5.80223369E-11
 -0.644999981       4.10778668E-11
 -0.610000014      -3.26211391E-10
 -0.574999988      -9.47607617E-11
 -0.540000021       1.84006921E-09
 -0.504999995       1.83749660E-09
 -0.469999999      -9.91776106E-10
 -0.435000002      -1.77049309E-09
 -0.400000006       6.43665732E-10
 -0.365000010      -2.67441957E-09
 -0.330000013      -2.66990940E-09
 -0.294999987       1.74274319E-08
 -0.259999990      -5.86074167E-09
 -0.224999994      -4.39394832E-08
 -0.189999998       3.11329060E-08
 -0.155000001       8.69820553E-08
 -0.119999997      -5.68724801E-09
  -8.50000009E-02  -3.96625417E-08
  -5.00000007E-02   3.51435396E-08
  -1.49999997E-02  -7.41287849E-08
   1.99999996E-02  -2.46759782E-07
   5.49999997E-02  -9.94137679E-08
   9.00000036E-02   2.11891305E-07
  0.125000000       2.22595190E-07
  0.159999996       7.16962916E-08
  0.194999993       1.56751611E-07
  0.230000004       9.58608268E-08
  0.264999986      -2.92655727E-07
  0.300000012      -1.18225358E-07
  0.335000008       2.01060331E-07
  0.370000005      -3.45846473E-07
  0.405000001      -2.51120156E-07
  0.439999998       3.20136991E-07
  0.474999994      -1.02711084E-07
  0.509999990      -2.53843751E-07
  0.545000017       2.53544471E-07
  0.579999983       2.82842052E-07
  0.615000010      -3.08042019E-08
  0.649999976       1.16532973E-07
  0.685000002       4.03825680E-07
  0.720000029       1.00557060E-07
  0.754999995      -3.19639355E-07
  0.790000021      -2.13023114E-07
  0.824999988      -2.62568648E-07
  0.860000014      -6.04104287E-07
  0.894999981      -2.20053039E-07
  0.930000007       5.06494985E-07
  0.964999974       8.86191799E-07
   1.00000000       6.14452063E-07
   1.03499997      -2.24987986E-07
   1.07000005      -4.73769319E-07
   1.10500002      -1.26889617E-07
   1.13999999      -1.69782354E-07
   1.17499995      -3.59049494E-07
   1.21000004      -1.11907475E-07
   1.24500000       3.82410946E-07
   1.27999997       4.81648897E-07
   1.31500006      -9.43706908E-08
   1.35000002      -5.45824093E-07
   1.38499999      -1.57938402E-07
   1.41999996       3.96934325E-07
   1.45500004       2.08357363E-07
   1.49000001      -3.04147022E-07
   1.52499998      -2.84702878E-07
   1.55999994       1.41390572E-07
   1.59500003      -6.77522820E-08
   1.63000000      -8.24401923E-07
