 -0.959999979       0.00000000
 -0.925000012      -1.42669251E-06
 -0.889999986      -1.68209517E-05
 -0.855000019      -1.20412815E-05
 -0.819999993       2.46166219E-05
 -0.785000026      -2.23756015E-05
 -0.750000000      -1.21447003E-04
 -0.714999974      -9.71989066E-05
 -0.680000007      -5.01588474E-05
 -0.644999981      -9.79875549E-05
 -0.610000014       7.17191142E-06
 -0.574999988       4.61538410E-04
 -0.540000021       1.36765069E-03
 -0.504999995       3.14555503E-03
 -0.469999999       6.17207075E-03
 -0.435000002       1.05692241E-02
 -0.400000006       1.66387428E-02
 -0.365000010       2.45357770E-02
 -0.330000013       3.39611471E-02
 -0.294999987       4.51821759E-02
 -0.259999990       5.98999709E-02
 -0.224999994       8.15566629E-02
 -0.189999998      0.116132408
 -0.155000001      0.171652541
 -0.119999997      0.254637480
  -8.50000009E-02  0.364824533
  -5.00000007E-02  0.489094198
  -1.49999997E-02  0.595759392
   1.99999996E-02  0.633728564
   5.49999997E-02  0.540452659
   9.00000036E-02  0.258679777
  0.125000000     -0.240081057
  0.159999996     -0.931032956
  0.194999993      -1.72099710
  0.230000004      -2.45261240
  0.264999986      -2.93203807
  0.300000012      -2.97768641
  0.335000008      -2.47856236
  0.370000005      -1.44241691
  0.405000001      -1.39177563E-02
  0.439999998       1.54820442
  0.474999994       2.93286586
  0.509999990       3.85959077
  0.545000017       4.15404749
  0.579999983       3.78965354
  0.615000010       2.88263893
  0.649999976       1.64588511
  0.685000002      0.322866917
  0.720000029     -0.871040285
  0.754999995      -1.78178358
  0.790000021      -2.32276940
  0.824999988      -2.46507955
  0.860000014      -2.22743368
  0.894999981      -1.67518628
  0.930000007     -0.923676431
  0.964999974     -0.131944016
   1.00000000      0.524265170
   1.03499997      0.899285793
   1.07000005      0.927973151
   1.10500002      0.654401183
   1.13999999      0.219628438
   1.17499995     -0.191760778
   1.21000004     -0.425910830
   1.24500000     -0.421195835
   1.27999997     -0.226980671
   1.31500006       2.91957315E-02
   1.35000002      0.209282950
   1.38499999      0.233767986
   1.41999996      0.117332965
   1.45500004      -4.64298129E-02
   1.49000001     -0.141047686
   1.52499998      -9.31493565E-02
   1.55999994       8.60920027E-02
   1.59500003      0.305790067
   1.63000000      0.443595439
