 -0.800000012       0.00000000
 -0.788999975       0.00000000
 -0.777999997       0.00000000
 -0.767000020       0.00000000
 -0.755999982      -6.00988925E-10
 -0.745000005      -1.19468631E-08
 -0.734000027       1.24985831E-07
 -0.722999990      -4.62613571E-07
 -0.712000012       5.64412176E-07
 -0.700999975       1.23699931E-06
 -0.689999998      -4.86942145E-06
 -0.679000020       2.62172011E-06
 -0.667999983       1.31934994E-05
 -0.657000005      -2.26869361E-05
 -0.646000028      -1.36521685E-05
 -0.634999990       6.75824849E-05
 -0.624000013      -2.25903750E-05
 -0.612999976      -1.19085438E-04
 -0.601999998       1.22545855E-04
 -0.591000021       1.07786684E-04
 -0.579999983      -2.63841299E-04
 -0.569000006       8.36638646E-05
 -0.558000028       3.30028794E-04
 -0.546999991      -5.62380592E-04
 -0.536000013      -1.34468675E-04
 -0.524999976       1.30024797E-03
 -0.513999999      -4.50662745E-04
 -0.503000021      -1.96987321E-03
 -0.492000014       1.34859048E-03
 -0.481000006       1.87544839E-03
 -0.469999999      -2.30338424E-03
 -0.458999991      -2.55481136E-04
 -0.448000014       3.07520223E-03
 -0.437000006      -2.90376740E-03
 -0.425999999      -3.38465371E-03
 -0.414999992       6.17548078E-03
 -0.404000014       2.38575204E-03
 -0.393000007      -7.40090013E-03
 -0.381999999       1.23441534E-03
 -0.370999992       5.62368147E-03
 -0.360000014      -7.36350752E-03
 -0.349000007      -1.44437572E-03
 -0.338000000       1.33450320E-02
 -0.326999992      -4.38436167E-03
 -0.316000015      -1.65228955E-02
 -0.305000007       8.93855654E-03
 -0.294000000       1.20163485E-02
 -0.282999992      -1.37974052E-02
 -0.272000015      -2.79772072E-03
 -0.261000007       1.56049086E-02
 -0.250000000      -1.01764277E-02
 -0.238999993      -1.76435988E-02
 -0.228000000       1.46591244E-02
 -0.216999993       9.13030654E-03
 -0.206000000      -1.96184013E-02
 -0.194999993      -6.09393138E-03
 -0.184000000       5.49422624E-03
 -0.172999993      -1.43125346E-02
 -0.162000000      -9.60740075E-03
 -0.150999993       3.37854610E-03
 -0.140000001      -1.95626430E-02
 -0.128999993      -2.55362876E-02
 -0.118000001      -2.31030630E-03
 -0.107000001      -1.71521511E-02
  -9.60000008E-02  -4.27792519E-02
  -8.50000009E-02  -2.28192732E-02
  -7.40000010E-02  -1.39432373E-02
  -6.30000010E-02  -4.19700965E-02
  -5.20000011E-02  -4.22133505E-02
  -4.10000011E-02  -2.54350286E-02
  -2.99999993E-02  -4.12886851E-02
  -1.89999994E-02  -4.85694893E-02
  -8.00000038E-03  -2.20018961E-02
   3.00000003E-03  -1.25948498E-02
   1.40000004E-02  -2.05540620E-02
   2.50000004E-02  -1.00657123E-03
   3.59999985E-02   3.56602743E-02
   4.69999984E-02   6.37260228E-02
   5.79999983E-02   9.54501107E-02
   6.89999983E-02  0.146560878
   7.99999982E-02  0.216336921
   9.09999982E-02  0.290592909
  0.101999998      0.360445023
  0.112999998      0.447681516
  0.123999998      0.558233380
  0.135000005      0.657013416
  0.145999998      0.748225033
  0.157000005      0.864070415
  0.167999998      0.970209122
  0.179000005       1.03239775
  0.189999998       1.08903944
  0.201000005       1.13919520
  0.211999997       1.12294340
  0.223000005       1.04281223
  0.233999997      0.924205005
  0.245000005      0.728464425
  0.256000012      0.431385219
  0.266999990       4.77392562E-02
  0.277999997     -0.443919271
  0.289000005      -1.06097758
  0.300000012      -1.77878809
  0.310999990      -2.60692143
  0.321999997      -3.57067561
  0.333000004      -4.63719606
  0.344000012      -5.77830410
  0.354999989      -7.00360870
  0.365999997      -8.27651691
  0.377000004      -9.53519821
  0.388000011      -10.7693272
  0.398999989      -11.9543924
  0.409999996      -12.9963999
  0.421000004      -13.8192825
  0.432000011      -14.3991404
  0.442999989      -14.6842051
  0.453999996      -14.5823603
  0.465000004      -14.0283108
  0.476000011      -12.9869308
  0.486999989      -11.4040813
  0.497999996      -9.22643471
  0.509000003      -6.44758797
  0.519999981      -3.08175325
  0.531000018      0.872375846
  0.541999996       5.38468981
  0.552999973       10.3658485
  0.564000010       15.7166500
  0.574999988       21.3284149
  0.586000025       27.0432205
  0.597000003       32.6875038
  0.607999980       38.0922127
  0.619000018       43.0409813
  0.629999995       47.2964478
  0.640999973       50.6718788
  0.652000010       52.9849129
  0.662999988       54.0317841
  0.674000025       53.6651459
  0.685000002       51.8029480
  0.695999980       48.3642960
  0.707000017       43.3203011
  0.717999995       36.7496223
  0.728999972       28.7727470
  0.740000010       19.5388813
  0.750999987       9.28760147
  0.762000024      -1.68229604
  0.773000002      -13.0678844
  0.783999979      -24.5228024
  0.795000017      -35.6590424
  0.805999994      -46.1121902
  0.816999972      -55.5397568
  0.828000009      -63.6001892
  0.838999987      -70.0160446
  0.850000024      -74.5916367
  0.861000001      -77.1594391
  0.871999979      -77.6133270
  0.883000016      -75.9767303
  0.893999994      -72.3591995
  0.904999971      -66.8772278
  0.916000009      -59.7181778
  0.926999986      -51.1866875
  0.938000023      -41.6174164
  0.949000001      -31.3213444
  0.959999979      -20.6488152
  0.971000016      -9.98403740
  0.981999993      0.347674757
  0.992999971       10.0735950
   1.00399995       18.9118328
   1.01499999       26.6158466
   1.02600002       33.0486259
   1.03699994       38.1392937
   1.04799998       41.8175621
   1.05900002       44.0617256
   1.07000005       44.9540939
   1.08099997       44.6274261
   1.09200001       43.2021217
   1.10300004       40.8143883
   1.11399996       37.6496124
   1.12500000       33.9074211
   1.13600004       29.7646484
   1.14699996       25.3886890
   1.15799999       20.9448643
   1.16900003       16.5841808
   1.17999995       12.4291239
   1.19099998       8.56744957
   1.20200002       5.05981636
   1.21300006       1.96346855
   1.22399998     -0.680499017
   1.23500001      -2.87653255
   1.24600005      -4.64283228
   1.25699997      -5.98460531
   1.26800001      -6.93422747
   1.27900004      -7.55590153
   1.28999996      -7.88656473
   1.30100000      -7.95282793
   1.31200004      -7.82167721
   1.32299995      -7.55208111
   1.33399999      -7.15433598
   1.34500003      -6.65440464
   1.35599995      -6.11042070
   1.36699998      -5.55059481
   1.37800002      -4.98297787
   1.38900006      -4.43459988
