 -0.959999979       0.00000000
 -0.925000012       1.18841979E-06
 -0.889999986       1.24819308E-05
 -0.855000019      -4.90196908E-06
 -0.819999993       1.44862515E-05
 -0.785000026       5.94254816E-05
 -0.750000000       6.74800322E-05
 -0.714999974       2.02409312E-04
 -0.680000007       3.02691915E-04
 -0.644999981       2.14542903E-04
 -0.610000014       7.01394514E-04
 -0.574999988       1.64845679E-03
 -0.540000021       1.64267921E-03
 -0.504999995       1.36559864E-03
 -0.469999999       2.23538093E-03
 -0.435000002       2.40116566E-03
 -0.400000006       8.98548751E-04
 -0.365000010       9.08408605E-04
 -0.330000013       4.20337124E-03
 -0.294999987       1.24332942E-02
 -0.259999990       3.51005681E-02
 -0.224999994       8.55001807E-02
 -0.189999998      0.173964024
 -0.155000001      0.311879784
 -0.119999997      0.506937206
  -8.50000009E-02  0.744897068
  -5.00000007E-02  0.982811332
  -1.49999997E-02   1.15224218
   1.99999996E-02   1.15843856
   5.49999997E-02  0.894921899
   9.00000036E-02  0.283522129
  0.125000000     -0.687988460
  0.159999996      -1.94382954
  0.194999993      -3.30798864
  0.230000004      -4.52056026
  0.264999986      -5.29594851
  0.300000012      -5.39329386
  0.335000008      -4.67231846
  0.370000005      -3.13341737
  0.405000001     -0.928095579
  0.439999998       1.67335808
  0.474999994       4.33439207
  0.509999990       6.70150232
  0.545000017       8.45222092
  0.579999983       9.33929539
  0.615000010       9.21669579
  0.649999976       8.05051041
  0.685000002       5.92404556
  0.720000029       3.03411579
  0.754999995     -0.323060155
  0.790000021      -3.77067518
  0.824999988      -6.87748909
  0.860000014      -9.19981670
  0.894999981      -10.3497515
  0.930000007      -10.0856276
  0.964999974      -8.40070820
   1.00000000      -5.57122564
   1.03499997      -2.13325644
   1.07000005       1.22933745
   1.10500002       3.86749959
   1.13999999       5.35374308
   1.17499995       5.59459543
   1.21000004       4.82618952
   1.24500000       3.49602032
   1.27999997       2.07968163
   1.31500006      0.917410910
   1.35000002      0.141601965
   1.38499999     -0.289517611
   1.41999996     -0.492787778
   1.45500004     -0.562174559
   1.49000001     -0.525494277
   1.52499998     -0.370050550
   1.55999994     -0.108197585
   1.59500003      0.173809990
   1.63000000      0.329326183
