 -0.959999979       0.00000000
 -0.925000012       0.00000000
 -0.889999986       3.22577668E-24
 -0.855000019       6.42743503E-09
 -0.819999993       1.02968031E-07
 -0.785000026       2.40418387E-07
 -0.750000000       2.50850974E-07
 -0.714999974       4.90145624E-07
 -0.680000007       1.62888432E-06
 -0.644999981       3.63728282E-06
 -0.610000014       6.36295863E-06
 -0.574999988       1.08771865E-05
 -0.540000021       1.89035090E-05
 -0.504999995       3.17295307E-05
 -0.469999999       5.02779330E-05
 -0.435000002       7.46417500E-05
 -0.400000006       1.03530627E-04
 -0.365000010       1.35426832E-04
 -0.330000013       1.69157080E-04
 -0.294999987       2.03675823E-04
 -0.259999990       2.42660739E-04
 -0.224999994       3.04884714E-04
 -0.189999998       4.35725175E-04
 -0.155000001       7.20550655E-04
 -0.119999997       1.30208407E-03
  -8.50000009E-02   2.39459123E-03
  -5.00000007E-02   4.28378489E-03
  -1.49999997E-02   7.30203558E-03
   1.99999996E-02   1.17639247E-02
   5.49999997E-02   1.78512800E-02
   9.00000036E-02   2.54581962E-02
  0.125000000       3.40298489E-02
  0.159999996       4.24503982E-02
  0.194999993       4.90535013E-02
  0.230000004       5.18142246E-02
  0.264999986       4.87213321E-02
  0.300000012       3.82611454E-02
  0.335000008       1.98932234E-02
  0.370000005      -5.62879723E-03
  0.405000001      -3.62085737E-02
  0.439999998      -6.86536282E-02
  0.474999994      -9.91433412E-02
  0.509999990     -0.123797633
  0.545000017     -0.139223352
  0.579999983     -0.142951459
  0.615000010     -0.133742273
  0.649999976     -0.111774065
  0.685000002      -7.87134916E-02
  0.720000029      -3.76349203E-02
  0.754999995       7.25229690E-03
  0.790000021       5.10918684E-02
  0.824999988       8.90515894E-02
  0.860000014      0.117061809
  0.894999981      0.132451668
  0.930000007      0.134327725
  0.964999974      0.123605542
   1.00000000      0.102703549
   1.03499997       7.50108734E-02
   1.07000005       4.42923196E-02
   1.10500002       1.41670546E-02
   1.13999999      -1.22722499E-02
   1.17499995      -3.27055156E-02
   1.21000004      -4.57442403E-02
   1.24500000      -5.10331281E-02
   1.27999997      -4.92637269E-02
   1.31500006      -4.20324691E-02
   1.35000002      -3.15071344E-02
   1.38499999      -1.99505202E-02
   1.41999996      -9.24079772E-03
   1.45500004      -5.61705034E-04
   1.49000001       5.63149573E-03
   1.52499998       9.40498058E-03
   1.55999994       1.10550085E-02
   1.59500003       1.09098079E-02
   1.63000000       9.31024831E-03
