 -0.959999979      -9.75056992E-06
 -0.925000012      -1.56809565E-05
 -0.889999986      -1.14532513E-05
 -0.855000019      -3.35510958E-05
 -0.819999993      -9.46218643E-05
 -0.785000026      -1.86727513E-04
 -0.750000000      -3.18906939E-04
 -0.714999974      -5.14343614E-04
 -0.680000007      -8.03144008E-04
 -0.644999981      -1.16797548E-03
 -0.610000014      -1.45485858E-03
 -0.574999988      -1.40395109E-03
 -0.540000021      -7.17307208E-04
 -0.504999995       9.95200244E-04
 -0.469999999       4.14698850E-03
 -0.435000002       8.81836470E-03
 -0.400000006       1.44300889E-02
 -0.365000010       1.95509568E-02
 -0.330000013       2.16869619E-02
 -0.294999987       1.74791422E-02
 -0.259999990       3.81270424E-03
 -0.224999994      -2.06784401E-02
 -0.189999998      -5.45848720E-02
 -0.155000001      -9.34728831E-02
 -0.119999997     -0.130827442
  -8.50000009E-02 -0.160917610
  -5.00000007E-02 -0.183149099
  -1.49999997E-02 -0.205772370
   1.99999996E-02 -0.246474132
   5.49999997E-02 -0.328085214
   9.00000036E-02 -0.468786657
  0.125000000     -0.668564200
  0.159999996     -0.896879375
  0.194999993      -1.08814919
  0.230000004      -1.15018606
  0.264999986     -0.986834288
  0.300000012     -0.530442715
  0.335000008      0.225909755
  0.370000005       1.20912242
  0.405000001       2.26945639
  0.439999998       3.20878696
  0.474999994       3.82679605
  0.509999990       3.97103262
  0.545000017       3.57525039
  0.579999983       2.67548442
  0.615000010       1.40146399
  0.649999976      -5.19936085E-02
  0.685000002      -1.46482503
  0.720000029      -2.63329720
  0.754999995      -3.40577412
  0.790000021      -3.70716953
  0.824999988      -3.54755735
  0.860000014      -3.01255202
  0.894999981      -2.23781347
  0.930000007      -1.37507808
  0.964999974     -0.559697449
   1.00000000      0.111313552
   1.03499997      0.586490810
   1.07000005      0.855109513
   1.10500002      0.937509656
   1.13999999      0.876302361
   1.17499995      0.729113936
   1.21000004      0.559791207
   1.24500000      0.425501078
   1.27999997      0.361427635
   1.31500006      0.369700342
   1.35000002      0.420200258
   1.38499999      0.465540022
   1.41999996      0.463820487
   1.45500004      0.397159696
   1.49000001      0.275947362
   1.52499998      0.127550840
   1.55999994      -2.18321942E-02
   1.59500003     -0.159430504
   1.63000000     -0.284547597
