 -0.800000012       0.00000000
 -0.788999975       0.00000000
 -0.777999997       0.00000000
 -0.767000020       0.00000000
 -0.755999982       1.88665861E-10
 -0.745000005      -3.44108825E-10
 -0.734000027      -5.41373391E-09
 -0.722999990       8.34841085E-09
 -0.712000012       2.29987602E-08
 -0.700999975      -4.07857996E-08
 -0.689999998      -4.83128701E-08
 -0.679000020       1.11088653E-07
 -0.667999983       5.15450225E-08
 -0.657000005      -2.08334342E-07
 -0.646000028       4.75822937E-10
 -0.634999990       2.79692870E-07
 -0.624000013      -6.93887685E-08
 -0.612999976      -1.85901371E-07
 -0.601999998       3.84997207E-08
 -0.591000021      -3.07817317E-07
 -0.579999983       8.72894077E-08
 -0.569000006       1.26051225E-06
 -0.558000028      -6.22689953E-08
 -0.546999991      -2.09787231E-06
 -0.536000013      -7.94698565E-08
 -0.524999976       2.07900621E-06
 -0.513999999      -1.20525527E-07
 -0.503000021      -1.32922787E-06
 -0.492000014       4.40431705E-07
 -0.481000006       2.49897170E-07
 -0.469999999       1.08909568E-07
 -0.458999991       2.07270500E-06
 -0.448000014       2.48005900E-08
 -0.437000006      -4.21552568E-06
 -0.425999999      -2.96820485E-06
 -0.414999992      -1.09222356E-06
 -0.404000014      -3.78640766E-06
 -0.393000007      -5.94416679E-06
 -0.381999999      -9.29349608E-06
 -0.370999992      -1.78735081E-05
 -0.360000014      -2.39868241E-05
 -0.349000007      -2.76082865E-05
 -0.338000000      -4.01511825E-05
 -0.326999992      -5.91151656E-05
 -0.316000015      -7.81111303E-05
 -0.305000007      -1.06047657E-04
 -0.294000000      -1.46183025E-04
 -0.282999992      -1.92422740E-04
 -0.272000015      -2.54075159E-04
 -0.261000007      -3.43500753E-04
 -0.250000000      -4.56659414E-04
 -0.238999993      -5.95088291E-04
 -0.228000000      -7.74811371E-04
 -0.216999993      -1.00534549E-03
 -0.206000000      -1.29274360E-03
 -0.194999993      -1.65363203E-03
 -0.184000000      -2.10539787E-03
 -0.172999993      -2.66105426E-03
 -0.162000000      -3.34043778E-03
 -0.150999993      -4.16971603E-03
 -0.140000001      -5.17310994E-03
 -0.128999993      -6.37641270E-03
 -0.118000001      -7.81222526E-03
 -0.107000001      -9.51369852E-03
  -9.60000008E-02  -1.15095899E-02
  -8.50000009E-02  -1.38320038E-02
  -7.40000010E-02  -1.65178049E-02
  -6.30000010E-02  -1.95961781E-02
  -5.20000011E-02  -2.30906550E-02
  -4.10000011E-02  -2.70290617E-02
  -2.99999993E-02  -3.14284489E-02
  -1.89999994E-02  -3.62855010E-02
  -8.00000038E-03  -4.15956005E-02
   3.00000003E-03  -4.73483168E-02
   1.40000004E-02  -5.35037108E-02
   2.50000004E-02  -6.00039102E-02
   3.59999985E-02  -6.67819381E-02
   4.69999984E-02  -7.37394243E-02
   5.79999983E-02  -8.07517841E-02
   6.89999983E-02  -8.76846537E-02
   7.99999982E-02  -9.43736210E-02
   9.09999982E-02 -0.100622967
  0.101999998     -0.106230445
  0.112999998     -0.110974632
  0.123999998     -0.114608608
  0.135000005     -0.116891608
  0.145999998     -0.117583446
  0.157000005     -0.116428815
  0.167999998     -0.113195769
  0.179000005     -0.107688591
  0.189999998      -9.97204185E-02
  0.201000005      -8.91386196E-02
  0.211999997      -7.58554190E-02
  0.223000005      -5.98249286E-02
  0.233999997      -4.10519168E-02
  0.245000005      -1.96254998E-02
  0.256000012       4.29868605E-03
  0.266999990       3.05061191E-02
  0.277999997       5.86952306E-02
  0.289000005       8.84927586E-02
  0.300000012      0.119472787
  0.310999990      0.151131526
  0.321999997      0.182899505
  0.333000004      0.214182317
  0.344000012      0.244348764
  0.354999989      0.272729218
  0.365999997      0.298664629
  0.377000004      0.321516752
  0.388000011      0.340654612
  0.398999989      0.355491459
  0.409999996      0.365522355
  0.421000004      0.370315909
  0.432000011      0.369524151
  0.442999989      0.362919837
  0.453999996      0.350404680
  0.465000004      0.331998408
  0.476000011      0.307854801
  0.486999989      0.278277725
  0.497999996      0.243703693
  0.509000003      0.204688981
  0.519999981      0.161919579
  0.531000018      0.116193466
  0.541999996       6.83801100E-02
  0.552999973       1.94152333E-02
  0.564000010      -2.97095999E-02
  0.574999988      -7.80037865E-02
  0.586000025     -0.124502510
  0.597000003     -0.168259442
  0.607999980     -0.208399370
  0.619000018     -0.244168177
  0.629999995     -0.274911493
  0.640999973     -0.300092638
  0.652000010     -0.319353074
  0.662999988     -0.332492441
  0.674000025     -0.339440197
  0.685000002     -0.340301931
  0.695999980     -0.335352689
  0.707000017     -0.324975252
  0.717999995     -0.309672117
  0.728999972     -0.290073186
  0.740000010     -0.266867280
  0.750999987     -0.240779698
  0.762000024     -0.212589040
  0.773000002     -0.183072120
  0.783999979     -0.152958348
  0.795000017     -0.122951113
  0.805999994      -9.37056392E-02
  0.816999972      -6.57777861E-02
  0.828000009      -3.96376699E-02
  0.838999987      -1.56826451E-02
  0.850000024       5.79806836E-03
  0.861000001       2.46228073E-02
  0.871999979       4.06845398E-02
  0.883000016       5.39577492E-02
  0.893999994       6.45083413E-02
  0.904999971       7.24631399E-02
  0.916000009       7.79894069E-02
  0.926999986       8.13027471E-02
  0.938000023       8.26548114E-02
  0.949000001       8.23036283E-02
  0.959999979       8.05109665E-02
  0.971000016       7.75484964E-02
  0.981999993       7.36751854E-02
  0.992999971       6.91210702E-02
   1.00399995       6.41026124E-02
   1.01499999       5.88203892E-02
   1.02600002       5.34360483E-02
   1.03699994       4.80822772E-02
   1.04799998       4.28795181E-02
   1.05900002       3.79169583E-02
   1.07000005       3.32496576E-02
   1.08099997       2.89248191E-02
   1.09200001       2.49754339E-02
   1.10300004       2.14044955E-02
   1.11399996       1.82077736E-02
   1.12500000       1.53827649E-02
   1.13600004       1.29076252E-02
   1.14699996       1.07516376E-02
   1.15799999       8.89539160E-03
   1.16900003       7.31304195E-03
   1.17999995       5.96657209E-03
   1.19099998       4.82987985E-03
   1.20200002       3.88398138E-03
   1.21300006       3.09833116E-03
   1.22399998       2.44627637E-03
   1.23500001       1.91497547E-03
   1.24600005       1.48578326E-03
   1.25699997       1.13536278E-03
   1.26800001       8.53813544E-04
   1.27900004       6.34057447E-04
   1.28999996       4.59997158E-04
   1.30100000       3.22350243E-04
   1.31200004       2.20161397E-04
   1.32299995       1.43956000E-04
   1.33399999       8.42546942E-05
   1.34500003       4.30411237E-05
   1.35599995       1.73975968E-05
   1.36699998      -2.25585973E-06
   1.37800002      -1.39801605E-05
   1.38900006      -1.44146034E-05
