 -0.800000012       0.00000000
 -0.788999975       2.68862604E-16
 -0.777999997      -4.82249262E-16
 -0.767000020       8.16478395E-12
 -0.755999982       5.21906385E-09
 -0.745000005      -2.36470967E-08
 -0.734000027       2.78825212E-08
 -0.722999990      -1.30188429E-08
 -0.712000012       2.53292995E-08
 -0.700999975      -2.92533979E-08
 -0.689999998      -2.99118774E-09
 -0.679000020       2.71760148E-09
 -0.667999983       3.11606563E-08
 -0.657000005      -1.08975996E-07
 -0.646000028       1.03214326E-07
 -0.634999990       1.51027280E-07
 -0.624000013      -1.16054970E-07
 -0.612999976      -2.88318631E-07
 -0.601999998       2.57481133E-07
 -0.591000021      -6.75662335E-08
 -0.579999983       5.76305581E-07
 -0.569000006      -2.20457014E-06
 -0.558000028       3.02931358E-06
 -0.546999991       2.07920380E-07
 -0.536000013      -5.45649755E-06
 -0.524999976       5.42832913E-06
 -0.513999999       4.16152670E-06
 -0.503000021      -1.15736484E-05
 -0.492000014       6.02186947E-06
 -0.481000006      -1.42089291E-07
 -0.469999999      -5.87517252E-06
 -0.458999991       1.61162407E-05
 -0.448000014      -6.32294541E-06
 -0.437000006      -2.90634580E-05
 -0.425999999       2.80989352E-05
 -0.414999992       3.42201056E-05
 -0.404000014      -6.99756129E-05
 -0.393000007       5.72922727E-05
 -0.381999999       1.87250237E-06
 -0.370999992      -8.25412935E-05
 -0.360000014       1.94728163E-05
 -0.349000007       1.39166004E-04
 -0.338000000      -1.19156946E-04
 -0.326999992      -1.52230888E-04
 -0.316000015       3.05777969E-04
 -0.305000007      -1.61037169E-05
 -0.294000000      -2.89971300E-04
 -0.282999992       2.35998232E-04
 -0.272000015       6.03428161E-05
 -0.261000007      -3.25717672E-04
 -0.250000000       1.57129805E-04
 -0.238999993       1.75611742E-04
 -0.228000000      -1.79362076E-04
 -0.216999993      -1.14009184E-04
 -0.206000000       3.50259448E-04
 -0.194999993       1.64262583E-05
 -0.184000000      -4.74955828E-04
 -0.172999993       7.41378535E-05
 -0.162000000       1.68977247E-04
 -0.150999993       7.68569444E-05
 -0.140000001       4.50029504E-04
 -0.128999993       1.00021847E-04
 -0.118000001      -1.31814997E-03
 -0.107000001      -1.67958278E-04
  -9.60000008E-02   1.58345990E-03
  -8.50000009E-02  -2.31908834E-05
  -7.40000010E-02  -1.21339061E-03
  -6.30000010E-02   6.73527829E-04
  -5.20000011E-02   1.93580796E-04
  -4.10000011E-02  -1.65091746E-03
  -2.99999993E-02   5.90657990E-04
  -1.89999994E-02   2.19492638E-03
  -8.00000038E-03  -1.14838919E-03
   3.00000003E-03  -6.85483101E-04
   1.40000004E-02   1.12004019E-03
   2.50000004E-02  -8.22067668E-04
   3.59999985E-02  -1.53497327E-03
   4.69999984E-02   1.69010379E-03
   5.79999983E-02   1.04988110E-03
   6.89999983E-02  -1.23756099E-03
   7.99999982E-02   3.92067268E-05
   9.09999982E-02   4.35448717E-04
  0.101999998      -6.63594925E-04
  0.112999998      -4.03542654E-04
  0.123999998       4.97755653E-04
  0.135000005       9.99788870E-04
  0.145999998       2.61452689E-04
  0.157000005      -1.42319303E-03
  0.167999998      -9.43534309E-04
  0.179000005       1.35376921E-03
  0.189999998       2.59516150E-04
  0.201000005      -8.67836061E-04
  0.211999997       6.93345617E-04
  0.223000005       8.42951937E-04
  0.233999997      -2.02147500E-03
  0.245000005       2.39338202E-04
  0.256000012       2.69845850E-03
  0.266999990      -7.29046646E-04
  0.277999997      -2.13859882E-03
  0.289000005       1.22621801E-04
  0.300000012       6.92218964E-05
  0.310999990       1.11235678E-03
  0.321999997       1.15454639E-03
  0.333000004      -1.06675131E-03
  0.344000012      -7.86167220E-04
  0.354999989       3.87085049E-04
  0.365999997      -1.28125295E-03
  0.377000004       8.64675618E-04
  0.388000011       1.16889505E-03
  0.398999989      -1.39259431E-03
  0.409999996       6.51038252E-04
  0.421000004       1.66093023E-03
  0.432000011      -2.79639941E-03
  0.442999989      -1.18095335E-03
  0.453999996       4.69845207E-03
  0.465000004       4.52384207E-04
  0.476000011      -5.14220959E-03
  0.486999989      -4.29736043E-04
  0.497999996       2.54260888E-03
  0.509000003       9.15656739E-04
  0.519999981       1.21882302E-03
  0.531000018      -8.53580277E-05
  0.541999996      -3.51905404E-03
  0.552999973      -4.30243614E-04
  0.564000010       3.35589400E-03
  0.574999988      -8.13452643E-04
  0.586000025      -1.62484765E-03
  0.597000003       2.20439723E-03
  0.607999980       2.63037567E-04
  0.619000018      -2.84211827E-03
  0.629999995      -3.48658155E-04
  0.640999973       1.67687668E-03
  0.652000010       1.29824830E-03
  0.662999988       9.87323001E-04
  0.674000025      -1.23378739E-03
  0.685000002      -2.78297625E-03
  0.695999980       3.96283314E-04
  0.707000017       1.70896447E-03
  0.717999995      -3.74507246E-04
  0.728999972       8.13182211E-04
  0.740000010       1.48990576E-03
  0.750999987      -2.22181669E-03
  0.762000024      -1.99291669E-03
  0.773000002       2.20767944E-03
  0.783999979       6.34248194E-04
  0.795000017      -1.73389423E-03
  0.805999994       1.63619011E-03
  0.816999972       1.57891389E-03
  0.828000009      -3.14326794E-03
  0.838999987      -1.61493570E-03
  0.850000024       2.79825879E-03
  0.861000001       8.43456422E-04
  0.871999979      -1.57475972E-03
  0.883000016       5.89657982E-04
  0.893999994       1.08028797E-03
  0.904999971      -1.11356215E-03
  0.916000009      -1.10632507E-03
  0.926999986       5.13900828E-04
  0.938000023       1.08755380E-03
  0.949000001      -1.37871742E-04
  0.959999979      -1.54524436E-03
  0.971000016       6.95544062E-04
  0.981999993       2.90940702E-03
  0.992999971      -1.60328252E-03
   1.00399995      -4.17463388E-03
   1.01499999       2.38157227E-03
   1.02600002       3.85662587E-03
   1.03699994      -3.19856685E-03
   1.04799998      -1.49654073E-03
   1.05900002       4.41827020E-03
   1.07000005      -1.60166540E-03
   1.08099997      -5.49881998E-03
   1.09200001       3.40553373E-03
   1.10300004       4.50949930E-03
   1.11399996      -3.98789160E-03
   1.12500000      -1.02114549E-03
   1.13600004       4.76753898E-03
   1.14699996      -2.61880714E-03
   1.15799999      -5.66983968E-03
   1.16900003       4.16503707E-03
   1.17999995       5.38771134E-03
   1.19099998      -3.69281089E-03
   1.20200002      -3.46213835E-03
   1.21300006       2.87946686E-03
   1.22399998       1.17317680E-03
   1.23500001      -2.72832112E-03
   1.24600005      -1.64735702E-05
   1.25699997       2.71991594E-03
   1.26800001      -3.16530175E-04
   1.27900004      -2.63530784E-03
   1.28999996       8.26717645E-04
   1.30100000       3.04439175E-03
   1.31200004      -1.29940629E-03
   1.32299995      -3.47336964E-03
   1.33399999       1.51750678E-03
   1.34500003       2.87614437E-03
   1.35599995      -2.23843823E-03
   1.36699998      -1.63578335E-03
   1.37800002       3.56117124E-03
   1.38900006       9.72952577E-04
