 -0.959999979       0.00000000
 -0.925000012       4.39255075E-23
 -0.889999986       9.18205885E-08
 -0.855000019       1.47097376E-06
 -0.819999993       3.34273318E-06
 -0.785000026       2.11261795E-06
 -0.750000000       3.56753480E-06
 -0.714999974       1.96862075E-05
 -0.680000007       4.49591680E-05
 -0.644999981       6.76297786E-05
 -0.610000014       1.03427294E-04
 -0.574999988       1.79150884E-04
 -0.540000021       2.97891471E-04
 -0.504999995       4.48207138E-04
 -0.469999999       6.13033539E-04
 -0.435000002       7.60755385E-04
 -0.400000006       8.68358649E-04
 -0.365000010       9.37518955E-04
 -0.330000013       9.74987983E-04
 -0.294999987       1.05005165E-03
 -0.259999990       1.44583534E-03
 -0.224999994       2.75806594E-03
 -0.189999998       5.93805313E-03
 -0.155000001       1.23765031E-02
 -0.119999997       2.39148997E-02
  -8.50000009E-02   4.25958112E-02
  -5.00000007E-02   7.01062679E-02
  -1.49999997E-02  0.106858835
   1.99999996E-02  0.150703207
   5.49999997E-02  0.195632532
   9.00000036E-02  0.231122732
  0.125000000      0.242745638
  0.159999996      0.214623228
  0.194999993      0.133768886
  0.230000004      -4.74514207E-03
  0.264999986     -0.193615094
  0.300000012     -0.411829025
  0.335000008     -0.626997828
  0.370000005     -0.801453710
  0.405000001     -0.900355101
  0.439999998     -0.899068892
  0.474999994     -0.787772119
  0.509999990     -0.572571874
  0.545000017     -0.273626626
  0.579999983       7.83001706E-02
  0.615000010      0.445390403
  0.649999976      0.786124647
  0.685000002       1.05913007
  0.720000029       1.22808290
  0.754999995       1.26752603
  0.790000021       1.16856146
  0.824999988      0.942428052
  0.860000014      0.620002151
  0.894999981      0.246657312
  0.930000007     -0.126371846
  0.964999974     -0.451773196
   1.00000000     -0.694209635
   1.03499997     -0.834445894
   1.07000005     -0.869196832
   1.10500002     -0.808065772
   1.13999999     -0.669610143
   1.17499995     -0.478173256
   1.21000004     -0.261823714
   1.24500000      -5.02776466E-02
   1.27999997      0.128582045
   1.31500006      0.253665894
   1.35000002      0.315455943
   1.38499999      0.318089783
   1.41999996      0.276982009
   1.45500004      0.212460592
   1.49000001      0.142381951
   1.52499998       7.74807110E-02
   1.55999994       2.14987975E-02
   1.59500003      -2.49255840E-02
   1.63000000      -5.99851646E-02
