 -0.959999979       0.00000000
 -0.925000012       0.00000000
 -0.889999986       1.45580625E-09
 -0.855000019       1.82019040E-08
 -0.819999993       2.89432780E-08
 -0.785000026       5.74302810E-08
 -0.750000000       1.58712865E-07
 -0.714999974       3.42658495E-07
 -0.680000007       7.74556554E-07
 -0.644999981       1.57725219E-06
 -0.610000014       2.64276582E-06
 -0.574999988       4.56747557E-06
 -0.540000021       8.51155619E-06
 -0.504999995       1.44679316E-05
 -0.469999999       2.20971106E-05
 -0.435000002       3.24646717E-05
 -0.400000006       4.57738315E-05
 -0.365000010       6.01833890E-05
 -0.330000013       7.57055823E-05
 -0.294999987       9.63774874E-05
 -0.259999990       1.32280184E-04
 -0.224999994       2.11180944E-04
 -0.189999998       3.94819654E-04
 -0.155000001       7.91564817E-04
 -0.119999997       1.57036155E-03
  -8.50000009E-02   2.97015649E-03
  -5.00000007E-02   5.28245373E-03
  -1.49999997E-02   8.79869144E-03
   1.99999996E-02   1.37264272E-02
   5.49999997E-02   2.00732592E-02
   9.00000036E-02   2.75163651E-02
  0.125000000       3.53067778E-02
  0.159999996       4.22544181E-02
  0.194999993       4.68208566E-02
  0.230000004       4.73349914E-02
  0.264999986       4.23114523E-02
  0.300000012       3.08003891E-02
  0.335000008       1.26825077E-02
  0.370000005      -1.11589842E-02
  0.405000001      -3.88388857E-02
  0.439999998      -6.76556677E-02
  0.474999994      -9.44226235E-02
  0.509999990     -0.115879960
  0.545000017     -0.129127920
  0.579999983     -0.132021874
  0.615000010     -0.123475216
  0.649999976     -0.103638090
  0.685000002      -7.39390776E-02
  0.720000029      -3.69831175E-02
  0.754999995       3.68958944E-03
  0.790000021       4.39665243E-02
  0.824999988       7.96244293E-02
  0.860000014      0.106857434
  0.894999981      0.122820564
  0.930000007      0.126105234
  0.964999974      0.117035061
   1.00000000       9.76740196E-02
   1.03499997       7.14881942E-02
   1.07000005       4.26891632E-02
   1.10500002       1.53961368E-02
   1.13999999      -7.15925172E-03
   1.17499995      -2.31563225E-02
   1.21000004      -3.22999731E-02
   1.24500000      -3.55315432E-02
   1.27999997      -3.44805084E-02
   1.31500006      -3.08818072E-02
   1.35000002      -2.61592902E-02
   1.38499999      -2.12633684E-02
   1.41999996      -1.67220775E-02
   1.45500004      -1.27844308E-02
   1.49000001      -9.53551847E-03
   1.52499998      -6.93034893E-03
   1.55999994      -4.77843499E-03
   1.59500003      -2.75904173E-03
   1.63000000      -5.26770425E-04
