 -0.959999979       0.00000000
 -0.925000012      -2.50934045E-05
 -0.889999986      -5.84246336E-05
 -0.855000019      -1.93209431E-04
 -0.819999993      -3.34945566E-04
 -0.785000026      -2.42201044E-04
 -0.750000000      -7.47216807E-04
 -0.714999974      -2.88279075E-03
 -0.680000007      -4.99211252E-03
 -0.644999981      -5.76259382E-03
 -0.610000014      -9.15932748E-03
 -0.574999988      -1.74620487E-02
 -0.540000021      -2.42907163E-02
 -0.504999995      -2.55929679E-02
 -0.469999999      -2.59010699E-02
 -0.435000002      -2.30907854E-02
 -0.400000006      -5.83211798E-03
 -0.365000010       2.73537710E-02
 -0.330000013       6.91295192E-02
 -0.294999987      0.119565472
 -0.259999990      0.177297443
 -0.224999994      0.229690433
 -0.189999998      0.273998260
 -0.155000001      0.327976584
 -0.119999997      0.409292668
  -8.50000009E-02  0.526575804
  -5.00000007E-02  0.678297400
  -1.49999997E-02  0.820684433
   1.99999996E-02  0.836914837
   5.49999997E-02  0.552651882
   9.00000036E-02 -0.223930269
  0.125000000      -1.65081525
  0.159999996      -3.76688790
  0.194999993      -6.39749289
  0.230000004      -9.10286808
  0.264999986      -11.1859426
  0.300000012      -11.7825308
  0.335000008      -10.0624676
  0.370000005      -5.49868345
  0.405000001       1.87945879
  0.439999998       11.3116531
  0.474999994       21.2998905
  0.509999990       29.8550587
  0.545000017       34.9423447
  0.579999983       34.9738464
  0.615000010       29.2291241
  0.649999976       18.1109200
  0.685000002       3.12806201
  0.720000029      -13.4002934
  0.754999995      -28.7879066
  0.790000021      -40.4633102
  0.824999988      -46.4547539
  0.860000014      -45.7966652
  0.894999981      -38.7259293
  0.930000007      -26.6028652
  0.964999974      -11.6040173
   1.00000000       3.73218775
   1.03499997       17.0226898
   1.07000005       26.4963684
   1.10500002       31.2368107
   1.13999999       31.1694202
   1.17499995       26.9175129
   1.21000004       19.6443996
   1.24500000       10.8673944
   1.27999997       2.20765734
   1.31500006      -4.88580799
   1.35000002      -9.40764999
   1.38499999      -11.0322800
   1.41999996      -10.1886282
   1.45500004      -7.84921885
   1.49000001      -5.10454178
   1.52499998      -2.75138307
   1.55999994      -1.09116960
   1.59500003      -3.03887320E-03
   1.63000000      0.783693731
