 -0.800000012       0.00000000
 -0.788999975       0.00000000
 -0.777999997       0.00000000
 -0.767000020       0.00000000
 -0.755999982      -1.19482823E-14
 -0.745000005      -2.97155794E-14
 -0.734000027      -6.66404486E-13
 -0.722999990       2.75070418E-12
 -0.712000012      -6.44784703E-12
 -0.700999975       1.13554279E-11
 -0.689999998       7.56093452E-12
 -0.679000020      -1.10035751E-10
 -0.667999983       1.64014455E-10
 -0.657000005       2.87914331E-10
 -0.646000028      -9.53381707E-10
 -0.634999990      -1.18147117E-10
 -0.624000013       2.86612867E-09
 -0.612999976      -1.52795743E-09
 -0.601999998      -5.65793856E-09
 -0.591000021       5.93803895E-09
 -0.579999983       7.14152915E-09
 -0.569000006      -1.28283508E-08
 -0.558000028      -2.61562305E-09
 -0.546999991       1.86305851E-08
 -0.536000013      -1.33447404E-08
 -0.524999976      -1.77261477E-08
 -0.513999999       3.99744629E-08
 -0.503000021       6.27100949E-09
 -0.492000014      -5.91592233E-08
 -0.481000006       1.91715976E-08
 -0.469999999       3.46285418E-08
 -0.458999991      -7.15442852E-08
 -0.448000014       5.26099022E-08
 -0.437000006       1.59254384E-07
 -0.425999999      -1.55799071E-07
 -0.414999992      -2.18661896E-07
 -0.404000014       2.10889468E-07
 -0.393000007       1.11592918E-07
 -0.381999999      -2.70278491E-07
 -0.370999992       1.40297061E-07
 -0.360000014       3.45780620E-07
 -0.349000007      -3.26424669E-07
 -0.338000000      -1.25036493E-07
 -0.326999992       7.02902923E-07
 -0.316000015      -9.45484331E-08
 -0.305000007      -1.21313803E-06
 -0.294000000      -7.03994544E-07
 -0.282999992      -9.17223417E-07
 -0.272000015      -2.78975563E-06
 -0.261000007      -3.55493557E-06
 -0.250000000      -4.05722722E-06
 -0.238999993      -7.03242813E-06
 -0.228000000      -1.03119382E-05
 -0.216999993      -1.26317682E-05
 -0.206000000      -1.76911271E-05
 -0.194999993      -2.58144282E-05
 -0.184000000      -3.42717685E-05
 -0.172999993      -4.56469279E-05
 -0.162000000      -6.30475333E-05
 -0.150999993      -8.45287941E-05
 -0.140000001      -1.11084548E-04
 -0.128999993      -1.47791507E-04
 -0.118000001      -1.95402245E-04
 -0.107000001      -2.54107435E-04
  -9.60000008E-02  -3.29794682E-04
  -8.50000009E-02  -4.27101331E-04
  -7.40000010E-02  -5.47623844E-04
  -6.30000010E-02  -6.97705662E-04
  -5.20000011E-02  -8.85494985E-04
  -4.10000011E-02  -1.11541653E-03
  -2.99999993E-02  -1.39491493E-03
  -1.89999994E-02  -1.73589750E-03
  -8.00000038E-03  -2.14684196E-03
   3.00000003E-03  -2.63600377E-03
   1.40000004E-02  -3.21723404E-03
   2.50000004E-02  -3.90270492E-03
   3.59999985E-02  -4.70100157E-03
   4.69999984E-02  -5.62547427E-03
   5.79999983E-02  -6.69032289E-03
   6.89999983E-02  -7.90270511E-03
   7.99999982E-02  -9.27003287E-03
   9.09999982E-02  -1.08027868E-02
  0.101999998      -1.25036640E-02
  0.112999998      -1.43687623E-02
  0.123999998      -1.63963921E-02
  0.135000005      -1.85791254E-02
  0.145999998      -2.08966974E-02
  0.157000005      -2.33262777E-02
  0.167999998      -2.58433651E-02
  0.179000005      -2.84096599E-02
  0.189999998      -3.09771448E-02
  0.201000005      -3.34980711E-02
  0.211999997      -3.59166525E-02
  0.223000005      -3.81643660E-02
  0.233999997      -4.01725024E-02
  0.245000005      -4.18733358E-02
  0.256000012      -4.31902185E-02
  0.266999990      -4.40451764E-02
  0.277999997      -4.43698242E-02
  0.289000005      -4.40979525E-02
  0.300000012      -4.31640819E-02
  0.310999990      -4.15168889E-02
  0.321999997      -3.91190723E-02
  0.333000004      -3.59389484E-02
  0.344000012      -3.19594406E-02
  0.354999989      -2.71856580E-02
  0.365999997      -2.16349140E-02
  0.377000004      -1.53357014E-02
  0.388000011      -8.33809748E-03
  0.398999989      -7.08363368E-04
  0.409999996       7.48046720E-03
  0.421000004       1.61415692E-02
  0.432000011       2.51730084E-02
  0.442999989       3.44702043E-02
  0.453999996       4.39258479E-02
  0.465000004       5.34228310E-02
  0.476000011       6.28429800E-02
  0.486999989       7.20742941E-02
  0.497999996       8.10026377E-02
  0.509000003       8.95116255E-02
  0.519999981       9.74930003E-02
  0.531000018      0.104843244
  0.541999996      0.111455463
  0.552999973      0.117225870
  0.564000010      0.122058824
  0.574999988      0.125858292
  0.586000025      0.128526390
  0.597000003      0.129973024
  0.607999980      0.130115569
  0.619000018      0.128873035
  0.629999995      0.126173228
  0.640999973      0.121961340
  0.652000010      0.116197497
  0.662999988      0.108858302
  0.674000025       9.99477729E-02
  0.685000002       8.95006955E-02
  0.695999980       7.75804892E-02
  0.707000017       6.42855242E-02
  0.717999995       4.97540608E-02
  0.728999972       3.41601670E-02
  0.740000010       1.77128781E-02
  0.750999987       6.57925208E-04
  0.762000024      -1.67297479E-02
  0.773000002      -3.41540389E-02
  0.783999979      -5.12996055E-02
  0.795000017      -6.78411424E-02
  0.805999994      -8.34587291E-02
  0.816999972      -9.78444442E-02
  0.828000009     -0.110707566
  0.838999987     -0.121789880
  0.850000024     -0.130877167
  0.861000001     -0.137800217
  0.871999979     -0.142440647
  0.883000016     -0.144741327
  0.893999994     -0.144706562
  0.904999971     -0.142395869
  0.916000009     -0.137924910
  0.926999986     -0.131465092
  0.938000023     -0.123232611
  0.949000001     -0.113477312
  0.959999979     -0.102479056
  0.971000016      -9.05389562E-02
  0.981999993      -7.79634342E-02
  0.992999971      -6.50553256E-02
   1.00399995      -5.21096997E-02
   1.01499999      -3.94024216E-02
   1.02600002      -2.71791164E-02
   1.03699994      -1.56541001E-02
   1.04799998      -5.00814011E-03
   1.05900002       4.61884681E-03
   1.07000005       1.31281279E-02
   1.08099997       2.04573218E-02
   1.09200001       2.65807305E-02
   1.10300004       3.15089151E-02
   1.11399996       3.52812111E-02
   1.12500000       3.79602127E-02
   1.13600004       3.96306254E-02
   1.14699996       4.03933376E-02
   1.15799999       4.03568745E-02
   1.16900003       3.96350063E-02
   1.17999995       3.83454487E-02
   1.19099998       3.66027355E-02
   1.20200002       3.45133580E-02
   1.21300006       3.21775489E-02
   1.22399998       2.96875555E-02
   1.23500001       2.71219667E-02
   1.24600005       2.45471336E-02
   1.25699997       2.20207796E-02
   1.26800001       1.95883345E-02
   1.27900004       1.72819383E-02
   1.28999996       1.51264723E-02
   1.30100000       1.31394314E-02
   1.31200004       1.13274753E-02
   1.32299995       9.69166495E-03
   1.33399999       8.23144801E-03
   1.34500003       6.93993969E-03
   1.35599995       5.80519391E-03
   1.36699998       4.81730700E-03
   1.37800002       3.96608049E-03
   1.38900006       3.23669706E-03
