 -0.959999979       0.00000000
 -0.925000012      -8.15253006E-05
 -0.889999986      -7.98146648E-04
 -0.855000019       1.07127067E-03
 -0.819999993       1.02346670E-03
 -0.785000026      -3.70873651E-03
 -0.750000000      -1.95248611E-03
 -0.714999974       3.33809061E-03
 -0.680000007      -6.50086207E-04
 -0.644999981      -2.08298350E-03
 -0.610000014       8.09209421E-03
 -0.574999988       1.78717021E-02
 -0.540000021       3.39061394E-02
 -0.504999995       6.76883906E-02
 -0.469999999      0.105255365
 -0.435000002      0.146010533
 -0.400000006      0.200819030
 -0.365000010      0.250440150
 -0.330000013      0.288152337
 -0.294999987      0.353049308
 -0.259999990      0.487967670
 -0.224999994      0.749557495
 -0.189999998       1.22619975
 -0.155000001       1.94637942
 -0.119999997       2.79561687
  -8.50000009E-02   3.50078678
  -5.00000007E-02   3.60033488
  -1.49999997E-02   2.49481988
   1.99999996E-02 -0.325154394
   5.49999997E-02  -5.00489950
   9.00000036E-02  -11.0964088
  0.125000000      -17.4042091
  0.159999996      -22.0787563
  0.194999993      -23.0620537
  0.230000004      -18.7445335
  0.264999986      -8.65122128
  0.300000012       6.04274130
  0.335000008       22.4786434
  0.370000005       36.7296638
  0.405000001       44.8988571
  0.439999998       44.3652725
  0.474999994       34.7582359
  0.509999990       18.1974754
  0.545000017      -1.37136197
  0.579999983      -19.4511528
  0.615000010      -32.3782539
  0.649999976      -38.2933884
  0.685000002      -37.3076553
  0.720000029      -30.9156113
  0.754999995      -21.1268635
  0.790000021      -9.78660965
  0.824999988       1.65459776
  0.860000014       11.9251642
  0.894999981       19.6318302
  0.930000007       23.3115921
  0.964999974       21.9302578
   1.00000000       15.5674095
   1.03499997       5.86233997
   1.07000005      -4.22306061
   1.10500002      -11.4096241
   1.13999999      -13.4345341
   1.17499995      -10.0734215
   1.21000004      -3.30658197
   1.24500000       3.57601237
   1.27999997       7.52199650
   1.31500006       7.11665487
   1.35000002       3.17404342
   1.38499999      -1.77489877
   1.41999996      -4.87853050
   1.45500004      -4.47934246
   1.49000001     -0.927392662
   1.52499998       3.66443944
   1.55999994       6.57792425
   1.59500003       5.97625113
   1.63000000       1.89834297
