 -0.800000012       0.00000000
 -0.788999975       0.00000000
 -0.777999997      -3.54975259E-23
 -0.767000020       5.00384449E-16
 -0.755999982      -1.27326543E-15
 -0.745000005       1.33661731E-14
 -0.734000027       4.68880678E-15
 -0.722999990      -5.51567323E-14
 -0.712000012       1.02939819E-13
 -0.700999975      -1.90614492E-13
 -0.689999998      -2.00993763E-13
 -0.679000020       7.08434993E-13
 -0.667999983      -4.21529890E-13
 -0.657000005      -9.25053545E-13
 -0.646000028       8.32734543E-13
 -0.634999990       1.57680466E-12
 -0.624000013      -8.23080048E-13
 -0.612999976      -1.05642361E-12
 -0.601999998       2.52516562E-12
 -0.591000021       3.97076686E-13
 -0.579999983      -5.36681029E-12
 -0.569000006       3.64871355E-13
 -0.558000028       7.65078799E-12
 -0.546999991       3.05516734E-13
 -0.536000013      -2.35274278E-12
 -0.524999976      -6.43148599E-12
 -0.513999999      -2.54984887E-11
 -0.503000021       9.61084424E-12
 -0.492000014       6.82389076E-11
 -0.481000006       8.92963307E-12
 -0.469999999      -7.17393922E-11
 -0.458999991      -1.91656465E-11
 -0.448000014      -5.52512307E-11
 -0.437000006      -1.54290469E-10
 -0.425999999       2.07993220E-10
 -0.414999992       6.03594730E-10
 -0.404000014      -1.68480382E-10
 -0.393000007      -1.05576670E-09
 -0.381999999      -1.00826077E-10
 -0.370999992       9.74427872E-10
 -0.360000014       1.78109472E-10
 -0.349000007       1.34103006E-10
 -0.338000000       6.13820994E-10
 -0.326999992      -2.69060085E-09
 -0.316000015      -2.49604559E-09
 -0.305000007       5.71230174E-09
 -0.294000000       4.45779680E-09
 -0.282999992      -5.45759482E-09
 -0.272000015      -1.61530778E-09
 -0.261000007       1.80878035E-09
 -0.250000000      -6.78237599E-09
 -0.238999993       2.19806684E-09
 -0.228000000       1.48483386E-08
 -0.216999993      -8.79754136E-09
 -0.206000000      -1.98231085E-08
 -0.194999993       1.81373245E-08
 -0.184000000       1.47432582E-08
 -0.172999993      -3.79587277E-08
 -0.162000000      -7.39043493E-10
 -0.150999993       4.43305801E-08
 -0.140000001      -1.60492331E-08
 -0.128999993      -5.64914027E-09
 -0.118000001       4.48129214E-08
 -0.107000001      -1.39352450E-08
  -9.60000008E-02  -5.71102419E-08
  -8.50000009E-02  -6.65270790E-08
  -7.40000010E-02  -1.63127094E-08
  -6.30000010E-02   2.14657717E-07
  -5.20000011E-02   2.37779261E-07
  -4.10000011E-02  -1.87061900E-07
  -2.99999993E-02  -2.36652809E-07
  -1.89999994E-02   1.33569642E-07
  -8.00000038E-03   2.75240541E-08
   3.00000003E-03  -2.18410747E-07
   1.40000004E-02  -1.47981893E-07
   2.50000004E-02   9.10538205E-08
   3.59999985E-02   4.00014812E-07
   4.69999984E-02   1.72634572E-07
   5.79999983E-02  -5.88784076E-07
   6.89999983E-02  -4.83459758E-07
   7.99999982E-02   6.94756125E-07
   9.09999982E-02   6.77779383E-07
  0.101999998      -5.31877447E-07
  0.112999998      -3.51967458E-07
  0.123999998       2.90754315E-07
  0.135000005      -1.65415329E-07
  0.145999998      -2.32455299E-08
  0.157000005       6.36927496E-07
  0.167999998      -4.92822096E-07
  0.179000005      -1.46848186E-06
  0.189999998       1.37896080E-07
  0.201000005       1.56362705E-06
  0.211999997       9.67768528E-07
  0.223000005      -3.46855956E-07
  0.233999997      -9.38321364E-07
  0.245000005       2.84665532E-07
  0.256000012       1.59467231E-06
  0.266999990      -5.75463275E-07
  0.277999997      -2.69477096E-06
  0.289000005      -1.11600016E-07
  0.300000012       1.85586725E-06
  0.310999990       4.16382626E-08
  0.321999997      -3.88998416E-07
  0.333000004       8.37089260E-07
  0.344000012      -4.38648584E-07
  0.354999989      -1.64824644E-06
  0.365999997       1.17075626E-06
  0.377000004       1.63501727E-06
  0.388000011      -3.40548081E-06
  0.398999989      -2.86413410E-06
  0.409999996       4.03063041E-06
  0.421000004       4.01717807E-06
  0.432000011      -2.56996782E-06
  0.442999989      -2.30847672E-06
  0.453999996       2.80373229E-06
  0.465000004       4.71181096E-07
  0.476000011      -4.16007379E-06
  0.486999989      -1.00653699E-06
  0.497999996       2.89692207E-06
  0.509000003      -1.86896358E-07
  0.519999981      -1.57507395E-06
  0.531000018       1.03985826E-06
  0.541999996      -3.60137733E-07
  0.552999973      -2.40482677E-06
  0.564000010       7.82144127E-07
  0.574999988       2.25681265E-06
  0.586000025       4.42367423E-07
  0.597000003       1.68389454E-06
  0.607999980       4.12110103E-06
  0.619000018       2.04816388E-06
  0.629999995      -3.41290843E-06
  0.640999973      -4.19465232E-06
  0.652000010      -4.77689071E-07
  0.662999988       6.80026631E-07
  0.674000025      -8.38460721E-07
  0.685000002      -1.31266006E-06
  0.695999980      -3.37873644E-07
  0.707000017       1.59268347E-06
  0.717999995       1.00334319E-06
  0.728999972      -3.21075004E-06
  0.740000010      -6.74378782E-07
  0.750999987       7.79360471E-06
  0.762000024       5.09762594E-06
  0.773000002      -4.70213081E-06
  0.783999979      -3.93813116E-06
  0.795000017       2.71963290E-06
  0.805999994       1.61876164E-06
  0.816999972      -5.16846558E-06
  0.828000009      -7.62593299E-06
  0.838999987      -1.24420424E-07
  0.850000024       8.04773754E-06
  0.861000001       1.19792355E-06
  0.871999979      -7.20397293E-06
  0.883000016       3.75012451E-06
  0.893999994       1.27807562E-05
  0.904999971      -1.80698930E-06
  0.916000009      -1.35768132E-05
  0.926999986      -1.74265676E-06
  0.938000023       8.29607416E-06
  0.949000001       2.79300103E-08
  0.959999979      -6.00242174E-06
  0.971000016       1.08934012E-06
  0.981999993       4.80846711E-06
  0.992999971      -2.43604177E-06
   1.00399995      -5.20932008E-06
   1.01499999       2.53741882E-06
   1.02600002       4.38028474E-06
   1.03699994      -2.75489947E-06
   1.04799998      -5.40504686E-07
   1.05900002       7.02809348E-06
   1.07000005       1.50913911E-06
   1.08099997      -4.81359848E-06
   1.09200001       1.27339445E-06
   1.10300004       2.63290349E-06
   1.11399996      -5.16389582E-06
   1.12500000      -5.37070127E-06
   1.13600004       7.27793747E-07
   1.14699996       3.20056370E-06
   1.15799999       2.58931846E-06
   1.16900003      -1.21931532E-06
   1.17999995      -2.70290502E-06
   1.19099998       4.32401794E-06
   1.20200002       4.81955112E-06
   1.21300006      -6.08608889E-06
   1.22399998      -4.04804541E-06
   1.23500001       8.66467053E-06
   1.24600005       1.85841282E-06
   1.25699997      -1.38904161E-05
   1.26800001      -5.62513560E-06
   1.27900004       1.27115336E-05
   1.28999996       7.49631863E-06
   1.30100000      -1.00725629E-05
   1.31200004      -6.33066475E-06
   1.32299995       1.10848850E-05
   1.33399999       6.51031132E-06
   1.34500003      -1.17475729E-05
   1.35599995      -4.36193341E-06
   1.36699998       1.42747822E-05
   1.37800002       3.38603945E-06
   1.38900006      -1.37063425E-05
