 -0.959999979       0.00000000
 -0.925000012       0.00000000
 -0.889999986      -9.98684939E-08
 -0.855000019      -1.17746663E-06
 -0.819999993      -9.42757879E-07
 -0.785000026       5.45698299E-07
 -0.750000000      -2.50905146E-06
 -0.714999974      -7.95561027E-06
 -0.680000007      -9.31294562E-06
 -0.644999981      -1.14667700E-05
 -0.610000014      -1.61723256E-05
 -0.574999988      -1.09645362E-05
 -0.540000021       1.61356020E-05
 -0.504999995       8.47712290E-05
 -0.469999999       2.36324791E-04
 -0.435000002       5.16814471E-04
 -0.400000006       9.76168783E-04
 -0.365000010       1.68152829E-03
 -0.330000013       2.69368291E-03
 -0.294999987       4.05879226E-03
 -0.259999990       5.85643295E-03
 -0.224999994       8.25182348E-03
 -0.189999998       1.15653686E-02
 -0.155000001       1.63810626E-02
 -0.119999997       2.35811081E-02
  -8.50000009E-02   3.42056975E-02
  -5.00000007E-02   4.91187572E-02
  -1.49999997E-02   6.84422851E-02
   1.99999996E-02   9.08219665E-02
   5.49999997E-02  0.112803288
   9.00000036E-02  0.128653631
  0.125000000      0.130910888
  0.159999996      0.111847959
  0.194999993       6.57385588E-02
  0.230000004      -8.62187054E-03
  0.264999986     -0.105944291
  0.300000012     -0.213864535
  0.335000008     -0.314382434
  0.370000005     -0.387363911
  0.405000001     -0.415351361
  0.439999998     -0.388338089
  0.474999994     -0.306977421
  0.509999990     -0.183037505
  0.545000017      -3.68058011E-02
  0.579999983      0.107745595
  0.615000010      0.228469700
  0.649999976      0.309530646
  0.685000002      0.343681812
  0.720000029      0.332131088
  0.754999995      0.282708943
  0.790000021      0.207406387
  0.824999988      0.120115042
  0.860000014       3.48506756E-02
  0.894999981      -3.58051136E-02
  0.930000007      -8.24121907E-02
  0.964999974     -0.100462675
   1.00000000      -9.16483104E-02
   1.03499997      -6.37639463E-02
   1.07000005      -2.86984704E-02
   1.10500002       1.19390513E-03
   1.13999999       1.71096977E-02
   1.17499995       1.65680293E-02
   1.21000004       3.68636707E-03
   1.24500000      -1.32456766E-02
   1.27999997      -2.57971939E-02
   1.31500006      -2.91343853E-02
   1.35000002      -2.37534996E-02
   1.38499999      -1.44844875E-02
   1.41999996      -7.38987559E-03
   1.45500004      -6.27126312E-03
   1.49000001      -1.06397970E-02
   1.52499998      -1.61445998E-02
   1.55999994      -1.71603523E-02
   1.59500003      -1.01180095E-02
   1.63000000       4.24501998E-03
