 -0.959999979       6.68886642E-04
 -0.925000012       1.40295527E-03
 -0.889999986       1.98264606E-03
 -0.855000019       4.85729612E-03
 -0.819999993       1.14889648E-02
 -0.785000026       2.31721997E-02
 -0.750000000       4.45474945E-02
 -0.714999974       8.26425552E-02
 -0.680000007      0.144866645
 -0.644999981      0.239346340
 -0.610000014      0.372042626
 -0.574999988      0.539414167
 -0.540000021      0.721184134
 -0.504999995      0.872814119
 -0.469999999      0.918741822
 -0.435000002      0.755653858
 -0.400000006      0.271795124
 -0.365000010     -0.619592905
 -0.330000013      -1.93554318
 -0.294999987      -3.57654500
 -0.259999990      -5.30014992
 -0.224999994      -6.73681688
 -0.189999998      -7.45404482
 -0.155000001      -7.06036663
 -0.119999997      -5.32569170
  -8.50000009E-02  -2.27688217
  -5.00000007E-02   1.77196097
  -1.49999997E-02   6.26753139
   1.99999996E-02   10.5253592
   5.49999997E-02   13.8624716
   9.00000036E-02   15.7151384
  0.125000000       15.7148018
  0.159999996       13.7248287
  0.194999993       9.86082745
  0.230000004       4.50829315
  0.264999986      -1.67357290
  0.300000012      -7.79280424
  0.335000008      -12.8441324
  0.370000005      -15.9149284
  0.405000001      -16.4323406
  0.439999998      -14.3608789
  0.474999994      -10.2584696
  0.509999990      -5.14392328
  0.545000017     -0.203106970
  0.579999983       3.56333375
  0.615000010       5.61492825
  0.649999976       5.96775103
  0.685000002       5.09037161
  0.720000029       3.65940642
  0.754999995       2.28627849
  0.790000021       1.32621384
  0.824999988      0.828651428
  0.860000014      0.618631244
  0.894999981      0.449168622
  0.930000007      0.148321152
  0.964999974     -0.300800413
   1.00000000     -0.770761609
   1.03499997      -1.07168615
   1.07000005      -1.05775177
   1.10500002     -0.707653821
   1.13999999     -0.142601773
   1.17499995      0.425589204
   1.21000004      0.789643228
   1.24500000      0.838430405
   1.27999997      0.602430463
   1.31500006      0.232636288
   1.35000002      -7.69096538E-02
   1.38499999     -0.184483171
   1.41999996      -6.61472678E-02
   1.45500004      0.179536551
   1.49000001      0.387644529
   1.52499998      0.415346235
   1.55999994      0.217412010
   1.59500003     -0.131146133
   1.63000000     -0.476007372
