 -0.800000012       0.00000000
 -0.788999975       0.00000000
 -0.777999997       0.00000000
 -0.767000020       0.00000000
 -0.755999982       1.63470565E-27
 -0.745000005       3.83947793E-17
 -0.734000027      -3.02381180E-16
 -0.722999990       5.02782876E-16
 -0.712000012       4.00616409E-16
 -0.700999975      -3.09310344E-15
 -0.689999998       1.18996461E-15
 -0.679000020       8.85081667E-15
 -0.667999983       4.07146545E-15
 -0.657000005       1.37102837E-14
 -0.646000028       1.49806467E-14
 -0.634999990      -1.84311625E-14
 -0.624000013       7.28262040E-16
 -0.612999976      -2.29666258E-14
 -0.601999998      -2.51796010E-14
 -0.591000021       1.66886954E-14
 -0.579999983       1.30016957E-14
 -0.569000006       1.18932479E-13
 -0.558000028       1.44463190E-13
 -0.546999991      -1.89069829E-13
 -0.536000013       4.75723959E-14
 -0.524999976       6.20055765E-13
 -0.513999999      -5.98302278E-13
 -0.503000021      -1.22414557E-12
 -0.492000014       1.41713410E-12
 -0.481000006       1.26344876E-12
 -0.469999999      -2.51690010E-12
 -0.458999991      -8.28125817E-14
 -0.448000014       2.81406972E-12
 -0.437000006      -3.20214189E-12
 -0.425999999      -1.17446742E-12
 -0.414999992       7.14088857E-12
 -0.404000014      -2.37673618E-12
 -0.393000007      -6.02801793E-12
 -0.381999999       5.87246744E-12
 -0.370999992      -6.91358472E-12
 -0.360000014       4.10842801E-12
 -0.349000007       3.30575844E-11
 -0.338000000      -4.60040304E-11
 -0.326999992      -5.10272553E-11
 -0.316000015       1.25850427E-10
 -0.305000007       8.88181716E-12
 -0.294000000      -2.07515130E-10
 -0.282999992       1.26029534E-10
 -0.272000015       2.45338361E-10
 -0.261000007      -2.89549634E-10
 -0.250000000      -1.01254317E-10
 -0.238999993       3.49234003E-10
 -0.228000000      -3.65883435E-10
 -0.216999993      -2.44286147E-10
 -0.206000000       9.16452192E-10
 -0.194999993      -2.19940160E-11
 -0.184000000      -1.02438746E-09
 -0.172999993       4.36934128E-10
 -0.162000000       3.10540038E-10
 -0.150999993      -1.18378141E-09
 -0.140000001       1.02632436E-09
 -0.128999993       2.01836259E-09
 -0.118000001      -2.75070167E-09
 -0.107000001      -1.62011771E-09
  -9.60000008E-02   3.99559674E-09
  -8.50000009E-02   5.16219012E-10
  -7.40000010E-02  -3.10450732E-09
  -6.30000010E-02   2.50696974E-09
  -5.20000011E-02   8.24440738E-10
  -4.10000011E-02  -4.63872496E-09
  -2.99999993E-02   2.14928142E-09
  -1.89999994E-02   3.13498716E-09
  -8.00000038E-03  -4.37998260E-09
   3.00000003E-03  -1.32091327E-09
   1.40000004E-02   7.84925103E-09
   2.50000004E-02   5.39301137E-09
   3.59999985E-02  -5.18909582E-10
   4.69999984E-02  -2.82761525E-09
   5.79999983E-02  -3.27178129E-09
   6.89999983E-02  -4.87467622E-09
   7.99999982E-02   1.51157170E-10
   9.09999982E-02   1.11021352E-08
  0.101999998       9.11493814E-09
  0.112999998      -7.67317113E-12
  0.123999998      -8.99957620E-09
  0.135000005      -2.01645989E-08
  0.145999998      -8.64265548E-09
  0.157000005       9.12718434E-09
  0.167999998      -5.45428591E-10
  0.179000005       8.70937933E-10
  0.189999998       1.92264231E-08
  0.201000005       7.14354309E-09
  0.211999997      -2.55873331E-08
  0.223000005      -1.57992837E-08
  0.233999997      -2.68544120E-09
  0.245000005      -1.04636229E-08
  0.256000012      -4.03462685E-09
  0.266999990       3.01759755E-08
  0.277999997       3.34106893E-08
  0.289000005      -6.50149845E-09
  0.300000012      -2.89043580E-08
  0.310999990       7.33059169E-09
  0.321999997       2.71822493E-08
  0.333000004      -1.53023212E-08
  0.344000012      -4.68697401E-08
  0.354999989       1.15146923E-08
  0.365999997       4.19943511E-08
  0.377000004      -2.32426220E-08
  0.388000011      -3.77569004E-10
  0.398999989       5.90889222E-08
  0.409999996      -2.94728100E-08
  0.421000004      -5.71405536E-08
  0.432000011       6.70133318E-08
  0.442999989       4.93921632E-08
  0.453999996      -6.49302692E-08
  0.465000004      -4.44143105E-08
  0.476000011       2.02386374E-08
  0.486999989      -1.60450213E-08
  0.497999996      -5.91245843E-08
  0.509000003      -2.76403416E-08
  0.519999981       2.76038961E-08
  0.531000018       2.53648267E-08
  0.541999996      -1.62576459E-08
  0.552999973      -2.11749818E-08
  0.564000010       3.02060528E-08
  0.574999988      -1.19649588E-08
  0.586000025      -7.24037648E-08
  0.597000003      -8.55790283E-09
  0.607999980       5.54815927E-08
  0.619000018      -5.40717338E-08
  0.629999995      -2.36114115E-08
  0.640999973       1.23869711E-07
  0.652000010      -5.88304694E-09
  0.662999988      -1.66843634E-07
  0.674000025      -4.19939994E-08
  0.685000002       3.80121890E-08
  0.695999980      -1.51068669E-08
  0.707000017       7.04455445E-08
  0.717999995       1.72510354E-07
  0.728999972      -5.22986499E-09
  0.740000010      -1.41992530E-07
  0.750999987      -9.43071186E-08
  0.762000024      -7.27017948E-08
  0.773000002       7.45675433E-09
  0.783999979       1.15282241E-07
  0.795000017       2.39318325E-08
  0.805999994      -1.10044574E-07
  0.816999972      -3.13028359E-08
  0.828000009       8.59743921E-08
  0.838999987       5.56523574E-08
  0.850000024       5.71762504E-09
  0.861000001       1.61692189E-08
  0.871999979       4.09590903E-08
  0.883000016       2.54245744E-08
  0.893999994      -5.16192387E-08
  0.904999971      -6.73628122E-08
  0.916000009       6.38073994E-09
  0.926999986      -9.22443544E-09
  0.938000023      -1.03252781E-07
  0.949000001      -4.43789716E-08
  0.959999979       1.03380422E-07
  0.971000016       5.78351447E-08
  0.981999993      -4.03025098E-08
  0.992999971       2.68201497E-08
   1.00399995       4.05419875E-08
   1.01499999      -8.13993211E-08
   1.02600002      -3.64713024E-08
   1.03699994       1.19735944E-07
   1.04799998       3.67466733E-08
   1.05900002      -1.22786645E-07
   1.07000005      -3.61708672E-08
   1.08099997       9.43353555E-08
   1.09200001       1.55549049E-08
   1.10300004      -6.89142965E-08
   1.11399996       1.68600192E-08
   1.12500000       4.86220166E-08
   1.13600004      -8.31285689E-08
   1.14699996      -8.94377550E-08
   1.15799999       1.06125491E-07
   1.16900003       1.22439445E-07
   1.17999995      -1.01059818E-07
   1.19099998      -1.32852151E-07
   1.20200002       3.45103857E-08
   1.21300006       1.37291911E-08
   1.22399998      -6.15479507E-08
   1.23500001       9.36074827E-08
   1.24600005       1.61438962E-07
   1.25699997      -3.28150769E-08
   1.26800001      -8.69863257E-08
   1.27900004       3.89255526E-08
   1.28999996       7.79926879E-09
   1.30100000      -6.23996783E-08
   1.31200004       1.82295832E-08
   1.32299995       4.08416874E-08
   1.33399999      -1.20257404E-08
   1.34500003       2.98073353E-08
   1.35599995       1.50186139E-08
   1.36699998      -9.80502435E-08
   1.37800002      -4.84055533E-08
   1.38900006       7.62593686E-08
