 -0.959999979       0.00000000
 -0.925000012       0.00000000
 -0.889999986       0.00000000
 -0.855000019      -2.72187139E-13
 -0.819999993       9.03219624E-14
 -0.785000026      -1.17957011E-12
 -0.750000000       1.84781287E-11
 -0.714999974       5.55646258E-11
 -0.680000007       2.86328773E-11
 -0.644999981       6.65116920E-12
 -0.610000014       6.00313410E-11
 -0.574999988       7.43147696E-11
 -0.540000021       6.04144623E-10
 -0.504999995       1.94136318E-10
 -0.469999999       2.79875845E-10
 -0.435000002       1.72469838E-09
 -0.400000006       1.19447185E-09
 -0.365000010       1.25632005E-09
 -0.330000013      -5.66499114E-09
 -0.294999987       4.94141128E-09
 -0.259999990       1.02591562E-08
 -0.224999994       3.09610249E-09
 -0.189999998       1.32044209E-09
 -0.155000001       1.21014692E-08
 -0.119999997       9.99901584E-09
  -8.50000009E-02  -2.58289301E-08
  -5.00000007E-02  -2.56758170E-08
  -1.49999997E-02   5.29393462E-09
   1.99999996E-02   2.06984971E-08
   5.49999997E-02   6.16086515E-09
   9.00000036E-02   3.70154751E-09
  0.125000000       1.49480268E-08
  0.159999996      -2.75522396E-08
  0.194999993      -4.15917931E-08
  0.230000004       4.28002842E-08
  0.264999986       7.53962723E-08
  0.300000012      -4.14033030E-09
  0.335000008      -5.48254881E-08
  0.370000005       6.99380953E-09
  0.405000001       8.35210798E-08
  0.439999998       1.05322883E-07
  0.474999994       1.20450654E-08
  0.509999990      -1.10147809E-07
  0.545000017      -1.66076049E-07
  0.579999983      -6.00213426E-08
  0.615000010       1.15016370E-07
  0.649999976       1.51475177E-07
  0.685000002       3.37404629E-08
  0.720000029      -1.00109197E-07
  0.754999995      -1.25681225E-07
  0.790000021      -2.31361579E-08
  0.824999988       1.03268263E-07
  0.860000014       1.09610205E-07
  0.894999981      -4.03064568E-08
  0.930000007      -1.74179661E-07
  0.964999974      -1.22511310E-07
   1.00000000       3.60382231E-08
   1.03499997       1.13781248E-07
   1.07000005       4.52896103E-08
   1.10500002      -6.29102672E-08
   1.13999999      -8.80498021E-08
   1.17499995      -1.56698299E-08
   1.21000004       4.24468034E-08
   1.24500000       1.72526615E-08
   1.27999997      -1.92376284E-08
   1.31500006      -7.71001574E-09
   1.35000002       1.53690021E-08
   1.38499999       2.83807235E-08
   1.41999996       3.11524175E-08
   1.45500004       1.15413128E-08
   1.49000001      -7.25354576E-09
   1.52499998       2.99509667E-10
   1.55999994       5.91056226E-09
   1.59500003       8.52500648E-09
   1.63000000       3.90226198E-08
