 -0.800000012       0.00000000
 -0.788999975       0.00000000
 -0.777999997       0.00000000
 -0.767000020       8.39626372E-12
 -0.755999982       6.03736896E-12
 -0.745000005       2.53527581E-11
 -0.734000027      -5.26103223E-11
 -0.722999990      -3.10320554E-11
 -0.712000012       5.69448134E-11
 -0.700999975      -2.05973398E-11
 -0.689999998      -8.59572899E-11
 -0.679000020       1.10515569E-10
 -0.667999983      -2.10146813E-11
 -0.657000005       2.02682093E-10
 -0.646000028       1.70895309E-09
 -0.634999990      -1.45641998E-09
 -0.624000013      -3.20551674E-09
 -0.612999976       2.32830977E-09
 -0.601999998      -2.20209087E-10
 -0.591000021      -3.64186525E-09
 -0.579999983       2.10763917E-09
 -0.569000006       7.08779746E-09
 -0.558000028      -1.04294295E-09
 -0.546999991      -1.04616360E-08
 -0.536000013       1.09180123E-08
 -0.524999976       2.42684983E-09
 -0.513999999      -3.43559634E-08
 -0.503000021       1.37704665E-08
 -0.492000014       1.73657320E-08
 -0.481000006      -1.44427679E-08
 -0.469999999       4.62216398E-08
 -0.458999991      -1.72521695E-08
 -0.448000014      -6.54137864E-08
 -0.437000006       9.69035199E-08
 -0.425999999       7.44523376E-08
 -0.414999992      -1.24619262E-07
 -0.404000014      -8.66598615E-09
 -0.393000007      -2.46753800E-08
 -0.381999999      -7.73661384E-08
 -0.370999992       1.89298646E-07
 -0.360000014       9.74697301E-08
 -0.349000007      -3.79767101E-07
 -0.338000000      -1.13085662E-07
 -0.326999992       3.92742095E-07
 -0.316000015       1.06980650E-07
 -0.305000007       3.58541826E-07
 -0.294000000       1.48015474E-07
 -0.282999992      -1.43764953E-06
 -0.272000015      -9.01653209E-07
 -0.261000007       1.61892808E-06
 -0.250000000       3.83771663E-07
 -0.238999993      -1.59765489E-06
 -0.228000000       3.44596799E-07
 -0.216999993       1.40433599E-06
 -0.206000000      -3.17518172E-08
 -0.194999993       1.27623309E-07
 -0.184000000       9.18555713E-07
 -0.172999993      -5.65147332E-07
 -0.162000000      -1.06959533E-06
 -0.150999993       8.44563829E-07
 -0.140000001       2.28476381E-07
 -0.128999993      -2.04820094E-06
 -0.118000001      -2.43040995E-06
 -0.107000001      -2.16723697E-06
  -9.60000008E-02   2.62702406E-06
  -8.50000009E-02   8.23026494E-06
  -7.40000010E-02   2.51173742E-06
  -6.30000010E-02  -6.66109281E-06
  -5.20000011E-02  -3.80515280E-06
  -4.10000011E-02   1.75124785E-06
  -2.99999993E-02  -1.92942412E-06
  -1.89999994E-02  -1.72876025E-06
  -8.00000038E-03   6.03992066E-06
   3.00000003E-03   4.79782057E-06
   1.40000004E-02  -1.88427146E-06
   2.50000004E-02  -1.64076368E-06
   3.59999985E-02  -4.21109689E-06
   4.69999984E-02  -4.43585805E-06
   5.79999983E-02   3.70669454E-06
   6.89999983E-02   6.28964790E-06
   7.99999982E-02   3.63448157E-06
   9.09999982E-02  -2.28514864E-07
  0.101999998      -9.16862336E-06
  0.112999998      -1.01302221E-05
  0.123999998       8.13234419E-06
  0.135000005       1.08752974E-05
  0.145999998      -1.08488603E-05
  0.157000005      -4.72463125E-06
  0.167999998       1.49506577E-05
  0.179000005       1.53577355E-06
  0.189999998      -1.40324455E-05
  0.201000005       2.57725264E-06
  0.211999997       1.03250140E-05
  0.223000005      -1.18175503E-05
  0.233999997      -9.57907196E-06
  0.245000005       2.07644480E-05
  0.256000012       1.49780453E-05
  0.266999990      -2.14305037E-05
  0.277999997      -1.80172501E-05
  0.289000005       9.87259682E-06
  0.300000012       7.78687991E-06
  0.310999990      -4.97456722E-06
  0.321999997       3.02931016E-06
  0.333000004       4.97117389E-06
  0.344000012      -7.55175506E-06
  0.354999989      -3.21779976E-06
  0.365999997       1.13470305E-05
  0.377000004       7.87849513E-06
  0.388000011      -2.95375821E-06
  0.398999989       2.42037714E-07
  0.409999996      -1.59887335E-07
  0.421000004      -1.21832318E-05
  0.432000011      -1.03586472E-05
  0.442999989       8.80164225E-06
  0.453999996       1.60690779E-05
  0.465000004      -1.25345093E-06
  0.476000011      -1.48253666E-05
  0.486999989      -1.34557217E-06
  0.497999996       7.25033078E-06
  0.509000003      -8.80302468E-06
  0.519999981      -6.29545639E-06
  0.531000018       2.08039692E-05
  0.541999996       1.35636319E-05
  0.552999973      -1.72783621E-05
  0.564000010      -1.34122383E-05
  0.574999988       1.17301556E-06
  0.586000025      -4.12263989E-06
  0.597000003       3.30837975E-06
  0.607999980       2.11591596E-05
  0.619000018       8.80581047E-06
  0.629999995      -1.68932547E-05
  0.640999973      -1.24354156E-05
  0.652000010       1.10126302E-05
  0.662999988       1.12335647E-05
  0.674000025      -1.29509572E-05
  0.685000002      -1.58319162E-05
  0.695999980       1.25650276E-05
  0.707000017       1.55319067E-05
  0.717999995      -1.31611014E-05
  0.728999972      -8.96345773E-06
  0.740000010       1.88162066E-05
  0.750999987       4.78988750E-06
  0.762000024      -2.37544027E-05
  0.773000002      -6.71946600E-06
  0.783999979       1.88361155E-05
  0.795000017       6.67087079E-06
  0.805999994      -8.14029772E-06
  0.816999972       4.06722080E-07
  0.828000009       3.70637667E-06
  0.838999987      -5.69883059E-06
  0.850000024      -3.62550531E-06
  0.861000001       4.48807032E-06
  0.871999979      -2.08003416E-06
  0.883000016      -6.58096906E-06
  0.893999994       9.84983035E-06
  0.904999971       1.78544615E-05
  0.916000009      -2.96997200E-06
  0.926999986      -1.55690523E-05
  0.938000023      -1.36838537E-06
  0.949000001       3.16036085E-06
  0.959999979      -9.47793978E-06
  0.971000016      -5.23905146E-06
  0.981999993       1.20376353E-05
  0.992999971       1.14529921E-05
   1.00399995      -1.55251917E-06
   1.01499999      -6.05069226E-06
   1.02600002      -5.35957406E-06
   1.03699994      -6.65271773E-06
   1.04799998      -2.16080139E-06
   1.05900002       8.85048757E-06
   1.07000005       9.46991167E-06
   1.08099997      -1.85230192E-06
   1.09200001      -1.06457458E-06
   1.10300004       8.77590173E-06
   1.11399996      -3.09716211E-06
   1.12500000      -1.95371504E-05
   1.13600004      -3.25173141E-06
   1.14699996       1.39093991E-05
   1.15799999      -1.03708089E-06
   1.16900003      -5.27674410E-06
   1.17999995       1.39937129E-05
   1.19099998       6.06562890E-06
   1.20200002      -1.70187232E-05
   1.21300006      -6.57192004E-06
   1.22399998       6.66498727E-06
   1.23500001      -7.13489999E-06
   1.24600005      -3.20646723E-06
   1.25699997       2.19522317E-05
   1.26800001       1.22371139E-05
   1.27900004      -2.07251578E-05
   1.28999996      -1.85041299E-05
   1.30100000       9.74171053E-06
   1.31200004       1.55308790E-05
   1.32299995      -2.48596848E-06
   1.33399999      -8.26948599E-06
   1.34500003       7.37623304E-06
   1.35599995       9.75682087E-06
   1.36699998      -1.30312501E-05
   1.37800002      -1.51316372E-05
   1.38900006       1.19894867E-05
