 -0.959999979       0.00000000
 -0.925000012      -4.39134539E-07
 -0.889999986      -1.90070000E-06
 -0.855000019      -6.30429668E-06
 -0.819999993      -1.55470079E-05
 -0.785000026      -2.56470739E-05
 -0.750000000      -4.29618703E-05
 -0.714999974      -1.06487059E-04
 -0.680000007      -2.44297844E-04
 -0.644999981      -4.32505185E-04
 -0.610000014      -6.93638693E-04
 -0.574999988      -1.15951232E-03
 -0.540000021      -1.89018657E-03
 -0.504999995      -2.76315166E-03
 -0.469999999      -3.66429333E-03
 -0.435000002      -4.52165445E-03
 -0.400000006      -5.02781291E-03
 -0.365000010      -4.65117628E-03
 -0.330000013      -2.96271313E-03
 -0.294999987       3.39466787E-04
 -0.259999990       5.53453201E-03
 -0.224999994       1.26567846E-02
 -0.189999998       2.14714315E-02
 -0.155000001       3.20060104E-02
 -0.119999997       4.49081212E-02
  -8.50000009E-02   6.12857789E-02
  -5.00000007E-02   8.23710486E-02
  -1.49999997E-02  0.108603396
   1.99999996E-02  0.137611434
   5.49999997E-02  0.161928594
   9.00000036E-02  0.167681247
  0.125000000      0.134873450
  0.159999996       4.00633030E-02
  0.194999993     -0.137813687
  0.230000004     -0.409069330
  0.264999986     -0.764123201
  0.300000012      -1.16607237
  0.335000008      -1.54835963
  0.370000005      -1.82067871
  0.405000001      -1.88401544
  0.439999998      -1.65317249
  0.474999994      -1.08246887
  0.509999990     -0.187256277
  0.545000017      0.946695149
  0.579999983       2.17022800
  0.615000010       3.29378200
  0.649999976       4.12223148
  0.685000002       4.49391270
  0.720000029       4.31415224
  0.754999995       3.57586074
  0.790000021       2.36396003
  0.824999988      0.842893541
  0.860000014     -0.771502376
  0.894999981      -2.25064921
  0.930000007      -3.39390826
  0.964999974      -4.06252861
   1.00000000      -4.20027971
   1.03499997      -3.83706713
   1.07000005      -3.07548785
   1.10500002      -2.06516051
   1.13999999     -0.973049104
   1.17499995       4.34761196E-02
   1.21000004      0.858309329
   1.24500000       1.39226353
   1.27999997       1.62107742
   1.31500006       1.57421064
   1.35000002       1.32407415
   1.38499999      0.966375351
   1.41999996      0.595009446
   1.45500004      0.279345065
   1.49000001       5.26537634E-02
   1.52499998      -8.48223716E-02
   1.55999994     -0.152065739
   1.59500003     -0.171215475
   1.63000000     -0.157554969
