 -0.959999979       6.68886642E-04
 -0.925000012       1.40295539E-03
 -0.889999986       1.98264653E-03
 -0.855000019       4.85729612E-03
 -0.819999993       1.14889638E-02
 -0.785000026       2.31721997E-02
 -0.750000000       4.45474908E-02
 -0.714999974       8.26425552E-02
 -0.680000007      0.144866616
 -0.644999981      0.239346310
 -0.610000014      0.372042686
 -0.574999988      0.539414227
 -0.540000021      0.721184254
 -0.504999995      0.872814298
 -0.469999999      0.918741882
 -0.435000002      0.755653501
 -0.400000006      0.271795809
 -0.365000010     -0.619591355
 -0.330000013      -1.93554115
 -0.294999987      -3.57654238
 -0.259999990      -5.30014992
 -0.224999994      -6.73682022
 -0.189999998      -7.45405006
 -0.155000001      -7.06036949
 -0.119999997      -5.32568836
  -8.50000009E-02  -2.27687597
  -5.00000007E-02   1.77196217
  -1.49999997E-02   6.26753092
   1.99999996E-02   10.5253582
   5.49999997E-02   13.8624668
   9.00000036E-02   15.7151356
  0.125000000       15.7148066
  0.159999996       13.7248363
  0.194999993       9.86082935
  0.230000004       4.50828934
  0.264999986      -1.67357850
  0.300000012      -7.79280615
  0.335000008      -12.8441267
  0.370000005      -15.9149256
  0.405000001      -16.4323483
  0.439999998      -14.3608894
  0.474999994      -10.2584686
  0.509999990      -5.14391375
  0.545000017     -0.203100592
  0.579999983       3.56333351
  0.615000010       5.61492538
  0.649999976       5.96775103
  0.685000002       5.09037209
  0.720000029       3.65940404
  0.754999995       2.28627539
  0.790000021       1.32621455
  0.824999988      0.828656435
  0.860000014      0.618635893
  0.894999981      0.449167490
  0.930000007      0.148314342
  0.964999974     -0.300806999
   1.00000000     -0.770762026
   1.03499997      -1.07168007
   1.07000005      -1.05774450
   1.10500002     -0.707650661
   1.13999999     -0.142604038
   1.17499995      0.425585032
   1.21000004      0.789641678
   1.24500000      0.838431358
   1.27999997      0.602431059
   1.31500006      0.232635736
   1.35000002      -7.69104213E-02
   1.38499999     -0.184483021
   1.41999996      -6.61453307E-02
   1.45500004      0.179538801
   1.49000001      0.387643754
   1.52499998      0.415342510
   1.55999994      0.217409492
   1.59500003     -0.131144866
   1.63000000     -0.476004064
