 -0.959999979       0.00000000
 -0.925000012       9.20733811E-22
 -0.889999986       1.85594874E-21
 -0.855000019      -2.76075278E-13
 -0.819999993      -1.60092089E-12
 -0.785000026       1.18268297E-12
 -0.750000000       6.22631157E-12
 -0.714999974       3.20573602E-11
 -0.680000007      -1.37066275E-10
 -0.644999981      -9.58488931E-12
 -0.610000014       2.04951597E-10
 -0.574999988       3.61999292E-10
 -0.540000021      -8.97914867E-11
 -0.504999995      -1.75439774E-09
 -0.469999999      -5.03731334E-10
 -0.435000002       1.98658245E-09
 -0.400000006      -2.38412712E-09
 -0.365000010       7.82449927E-09
 -0.330000013      -3.13519899E-09
 -0.294999987      -7.56637153E-09
 -0.259999990       2.45431107E-08
 -0.224999994      -2.20346390E-08
 -0.189999998      -7.70426851E-08
 -0.155000001       7.51392193E-08
 -0.119999997       1.51465443E-07
  -8.50000009E-02  -1.36017661E-07
  -5.00000007E-02  -1.64919385E-07
  -1.49999997E-02   1.73704365E-07
   1.99999996E-02   9.09561066E-08
   5.49999997E-02  -1.16846437E-07
   9.00000036E-02   6.76562735E-08
  0.125000000       2.43695251E-08
  0.159999996      -1.57439530E-07
  0.194999993       3.14784074E-08
  0.230000004       8.13008896E-08
  0.264999986       1.19908904E-07
  0.300000012       5.72938603E-08
  0.335000008      -7.07194886E-07
  0.370000005      -5.12220709E-07
  0.405000001       1.13015142E-06
  0.439999998       1.23918676E-06
  0.474999994      -4.81203983E-07
  0.509999990      -1.32053617E-06
  0.545000017      -7.60456999E-07
  0.579999983       6.26262079E-07
  0.615000010       1.92360585E-06
  0.649999976       9.78196567E-07
  0.685000002      -1.58562773E-06
  0.720000029      -2.29604120E-06
  0.754999995      -8.33840033E-07
  0.790000021       9.53623669E-07
  0.824999988       1.68465817E-06
  0.860000014       7.81600249E-07
  0.894999981      -3.61216081E-07
  0.930000007      -8.15634621E-07
  0.964999974      -1.14971238E-06
   1.00000000      -5.26767394E-07
   1.03499997       1.58939679E-06
   1.07000005       1.88891272E-06
   1.10500002      -5.56190912E-07
   1.13999999      -1.79030758E-06
   1.17499995      -1.20310995E-06
   1.21000004      -5.87651527E-07
   1.24500000       8.67151414E-07
   1.27999997       2.29444913E-06
   1.31500006       1.10312533E-06
   1.35000002      -9.24376081E-07
   1.38499999      -1.08571692E-06
   1.41999996      -4.05044375E-07
   1.45500004       2.10676490E-07
   1.49000001       7.12925555E-07
   1.52499998       1.98129513E-07
   1.55999994      -8.95475353E-07
   1.59500003      -8.50724916E-07
   1.63000000       4.07992161E-07
