 -0.959999979       0.00000000
 -0.925000012      -4.39132094E-07
 -0.889999986      -1.90068806E-06
 -0.855000019      -6.30428440E-06
 -0.819999993      -1.55470007E-05
 -0.785000026      -2.56470103E-05
 -0.750000000      -4.29617103E-05
 -0.714999974      -1.06486805E-04
 -0.680000007      -2.44297436E-04
 -0.644999981      -4.32504370E-04
 -0.610000014      -6.93637645E-04
 -0.574999988      -1.15951034E-03
 -0.540000021      -1.89018273E-03
 -0.504999995      -2.76314723E-03
 -0.469999999      -3.66428937E-03
 -0.435000002      -4.52165259E-03
 -0.400000006      -5.02779987E-03
 -0.365000010      -4.65115719E-03
 -0.330000013      -2.96271010E-03
 -0.294999987       3.39448918E-04
 -0.259999990       5.53450501E-03
 -0.224999994       1.26567818E-02
 -0.189999998       2.14714594E-02
 -0.155000001       3.20060402E-02
 -0.119999997       4.49080840E-02
  -8.50000009E-02   6.12856857E-02
  -5.00000007E-02   8.23711157E-02
  -1.49999997E-02  0.108603619
   1.99999996E-02  0.137611449
   5.49999997E-02  0.161928371
   9.00000036E-02  0.167681426
  0.125000000      0.134873912
  0.159999996       4.00630757E-02
  0.194999993     -0.137814611
  0.230000004     -0.409070194
  0.264999986     -0.764124274
  0.300000012      -1.16607404
  0.335000008      -1.54836082
  0.370000005      -1.82067835
  0.405000001      -1.88401484
  0.439999998      -1.65317237
  0.474999994      -1.08246863
  0.509999990     -0.187254310
  0.545000017      0.946698785
  0.579999983       2.17023110
  0.615000010       3.29378414
  0.649999976       4.12223434
  0.685000002       4.49391317
  0.720000029       4.31414890
  0.754999995       3.57585907
  0.790000021       2.36396074
  0.824999988      0.842887700
  0.860000014     -0.771511376
  0.894999981      -2.25065017
  0.930000007      -3.39390445
  0.964999974      -4.06252909
   1.00000000      -4.20028257
   1.03499997      -3.83706737
   1.07000005      -3.07548547
   1.10500002      -2.06515765
   1.13999999     -0.973047554
   1.17499995       4.34765331E-02
   1.21000004      0.858312368
   1.24500000       1.39226723
   1.27999997       1.62107611
   1.31500006       1.57420862
   1.35000002       1.32407749
   1.38499999      0.966376483
   1.41999996      0.595002949
   1.45500004      0.279341668
   1.49000001       5.26581667E-02
   1.52499998      -8.48212764E-02
   1.55999994     -0.152071565
   1.59500003     -0.171218917
   1.63000000     -0.157553315
