 -0.800000012       0.00000000
 -0.788999975       0.00000000
 -0.777999997       0.00000000
 -0.767000020       9.87461363E-11
 -0.755999982       4.80911456E-11
 -0.745000005       5.11505194E-09
 -0.734000027      -3.35024559E-08
 -0.722999990       1.04261623E-07
 -0.712000012      -2.23155467E-07
 -0.700999975       1.78493792E-07
 -0.689999998       9.40513644E-07
 -0.679000020      -3.23675090E-06
 -0.667999983       1.24091332E-06
 -0.657000005       1.12826092E-05
 -0.646000028      -1.71614156E-05
 -0.634999990      -1.77606598E-05
 -0.624000013       6.09782001E-05
 -0.612999976      -2.18270065E-06
 -0.601999998      -1.29966662E-04
 -0.591000021       8.58884523E-05
 -0.579999983       1.74986533E-04
 -0.569000006      -2.49443197E-04
 -0.558000028      -9.11856696E-05
 -0.546999991       4.39847470E-04
 -0.536000013      -2.28048928E-04
 -0.524999976      -5.13074803E-04
 -0.513999999       7.55405752E-04
 -0.503000021       2.62204820E-04
 -0.492000014      -1.18810858E-03
 -0.481000006       5.19619556E-04
 -0.469999999       1.00520486E-03
 -0.458999991      -1.90352963E-03
 -0.448000014       1.44709062E-04
 -0.437000006       3.48510663E-03
 -0.425999999      -2.08422192E-03
 -0.414999992      -4.06953646E-03
 -0.404000014       4.37064562E-03
 -0.393000007       2.33532721E-03
 -0.381999999      -6.54915068E-03
 -0.370999992       1.69497030E-03
 -0.360000014       7.25364126E-03
 -0.349000007      -7.21975975E-03
 -0.338000000      -5.17815212E-03
 -0.326999992       1.34329442E-02
 -0.316000015       2.65410752E-03
 -0.305000007      -1.34523083E-02
 -0.294000000       5.96995838E-03
 -0.282999992       1.37132946E-02
 -0.272000015      -9.15172510E-03
 -0.261000007      -2.17282725E-03
 -0.250000000       2.04374976E-02
 -0.238999993       2.51538283E-03
 -0.228000000      -7.93158170E-03
 -0.216999993       2.26401519E-02
 -0.206000000       2.53219176E-02
 -0.194999993       2.76110205E-03
 -0.184000000       2.41149943E-02
 -0.172999993       4.97970209E-02
 -0.162000000       3.37224565E-02
 -0.150999993       4.19374220E-02
 -0.140000001       8.38966817E-02
 -0.128999993       9.01153758E-02
 -0.118000001       9.16880593E-02
 -0.107000001      0.140345946
  -9.60000008E-02  0.178671747
  -8.50000009E-02  0.191868007
  -7.40000010E-02  0.244294792
  -6.30000010E-02  0.311631799
  -5.20000011E-02  0.348195493
  -4.10000011E-02  0.409728825
  -2.99999993E-02  0.508136451
  -1.89999994E-02  0.578192592
  -8.00000038E-03  0.646421194
   3.00000003E-03  0.760898054
   1.40000004E-02  0.861508608
   2.50000004E-02  0.932445347
   3.59999985E-02   1.04275882
   4.69999984E-02   1.16011536
   5.79999983E-02   1.21931624
   6.89999983E-02   1.28055620
   7.99999982E-02   1.36711812
   9.09999982E-02   1.38945365
  0.101999998       1.35720420
  0.112999998       1.34325361
  0.123999998       1.28180206
  0.135000005       1.11440432
  0.145999998      0.925750792
  0.157000005      0.723165274
  0.167999998      0.406567812
  0.179000005       9.85105895E-03
  0.189999998     -0.384609789
  0.201000005     -0.845913470
  0.211999997      -1.41226625
  0.223000005      -1.97985554
  0.233999997      -2.53965449
  0.245000005      -3.17319179
  0.256000012      -3.81751490
  0.266999990      -4.38269854
  0.277999997      -4.93004084
  0.289000005      -5.47122097
  0.300000012      -5.89494896
  0.310999990      -6.20338202
  0.321999997      -6.46560097
  0.333000004      -6.60651016
  0.344000012      -6.56405783
  0.354999989      -6.42124081
  0.365999997      -6.18585157
  0.377000004      -5.77172375
  0.388000011      -5.22413778
  0.398999989      -4.62073994
  0.409999996      -3.90304780
  0.421000004      -3.06042457
  0.432000011      -2.19641137
  0.442999989      -1.30983019
  0.453999996     -0.341600090
  0.465000004      0.635309100
  0.476000011       1.56086314
  0.486999989       2.50352407
  0.497999996       3.46539044
  0.509000003       4.36074638
  0.519999981       5.21615314
  0.531000018       6.09929276
  0.541999996       6.95670080
  0.552999973       7.74750280
  0.564000010       8.54178810
  0.574999988       9.35035419
  0.586000025       10.0944319
  0.597000003       10.7773943
  0.607999980       11.4465094
  0.619000018       12.0442924
  0.629999995       12.4970121
  0.640999973       12.8255110
  0.652000010       13.0185509
  0.662999988       12.9867582
  0.674000025       12.6999693
  0.685000002       12.1738234
  0.695999980       11.3608274
  0.707000017       10.2200775
  0.717999995       8.78079128
  0.728999972       7.05139494
  0.740000010       5.02202559
  0.750999987       2.75104856
  0.762000024      0.302078366
  0.773000002      -2.30441833
  0.783999979      -4.99113321
  0.795000017      -7.63518906
  0.805999994      -10.1819210
  0.816999972      -12.5831985
  0.828000009      -14.7167368
  0.838999987      -16.4883194
  0.850000024      -17.8864956
  0.861000001      -18.8644581
  0.871999979      -19.3373165
  0.883000016      -19.3010139
  0.893999994      -18.8078003
  0.904999971      -17.8545666
  0.916000009      -16.4380646
  0.926999986      -14.6485567
  0.938000023      -12.5841322
  0.949000001      -10.2739916
  0.959999979      -7.78476000
  0.971000016      -5.25016642
  0.981999993      -2.74832916
  0.992999971     -0.310682118
   1.00399995       1.96976638
   1.01499999       4.00035954
   1.02600002       5.77088165
   1.03699994       7.26414204
   1.04799998       8.42114735
   1.05900002       9.23793507
   1.07000005       9.75283623
   1.08099997       9.96491241
   1.09200001       9.87861156
   1.10300004       9.55249405
   1.11399996       9.03396702
   1.12500000       8.33640862
   1.13600004       7.50337267
   1.14699996       6.60340023
   1.15799999       5.66283178
   1.16900003       4.69308567
   1.17999995       3.74611092
   1.19099998       2.86340761
   1.20200002       2.03606439
   1.21300006       1.27592969
   1.22399998      0.625544012
   1.23500001       7.54238889E-02
   1.24600005     -0.401330888
   1.25699997     -0.775403440
   1.26800001      -1.04098046
   1.27900004      -1.24815488
   1.28999996      -1.39345646
   1.30100000      -1.44655919
   1.31200004      -1.45423448
   1.32299995      -1.45164919
   1.33399999      -1.39593005
   1.34500003      -1.29490554
   1.35599995      -1.21171379
   1.36699998      -1.12951159
   1.37800002      -1.00823963
   1.38900006     -0.892743051
