 -0.800000012       0.00000000
 -0.788999975       0.00000000
 -0.777999997      -6.45409571E-21
 -0.767000020       9.09790025E-14
 -0.755999982      -4.13460797E-13
 -0.745000005       3.07517683E-12
 -0.734000027      -4.65287964E-12
 -0.722999990      -6.22812739E-12
 -0.712000012       3.49729551E-11
 -0.700999975      -8.83464690E-11
 -0.689999998       8.64593327E-11
 -0.679000020       7.88913518E-11
 -0.667999983      -2.84339524E-10
 -0.657000005       1.92789743E-10
 -0.646000028       1.26808078E-10
 -0.634999990       8.47738720E-12
 -0.624000013      -4.44820042E-10
 -0.612999976       4.02393951E-10
 -0.601999998       2.48804061E-10
 -0.591000021      -6.35729247E-10
 -0.579999983      -4.12250289E-10
 -0.569000006       1.45437429E-09
 -0.558000028      -1.29662128E-10
 -0.546999991      -1.20584165E-09
 -0.536000013       7.22521820E-10
 -0.524999976      -1.46411150E-09
 -0.513999999      -2.00261630E-09
 -0.503000021       8.38613090E-09
 -0.492000014       2.27351626E-09
 -0.481000006      -1.30570204E-08
 -0.469999999      -1.61007474E-09
 -0.458999991       1.11689387E-08
 -0.448000014      -1.77299544E-08
 -0.437000006      -2.77182055E-10
 -0.425999999       6.61469457E-08
 -0.414999992       5.78059378E-09
 -0.404000014      -1.46157888E-07
 -0.393000007      -1.51669042E-08
 -0.381999999       1.88792484E-07
 -0.370999992       6.70824196E-09
 -0.360000014      -1.51493396E-07
 -0.349000007       1.43492215E-07
 -0.338000000      -5.62707640E-08
 -0.326999992      -5.44533236E-07
 -0.316000015       5.79906896E-07
 -0.305000007       9.12519795E-07
 -0.294000000      -1.14061152E-06
 -0.282999992      -6.62186949E-07
 -0.272000015       1.36078449E-06
 -0.261000007      -7.38223093E-07
 -0.250000000      -8.23805294E-07
 -0.238999993       2.45661317E-06
 -0.228000000      -1.56563615E-07
 -0.216999993      -4.14268743E-06
 -0.206000000       2.13803855E-06
 -0.194999993       4.76385867E-06
 -0.184000000      -5.38096174E-06
 -0.172999993      -4.20121751E-06
 -0.162000000       1.09684333E-05
 -0.150999993      -2.77395543E-06
 -0.140000001      -8.20419245E-06
 -0.128999993       1.00951183E-05
 -0.118000001      -9.20198090E-07
 -0.107000001      -9.76128649E-06
  -9.60000008E-02   1.91128697E-06
  -8.50000009E-02  -3.62343917E-06
  -7.40000010E-02   1.27533240E-05
  -6.30000010E-02   2.92412969E-05
  -5.20000011E-02  -2.50373778E-05
  -4.10000011E-02  -5.22064693E-05
  -2.99999993E-02   4.31899389E-05
  -1.89999994E-02   2.41232392E-05
  -8.00000038E-03  -4.34042558E-05
   3.00000003E-03  -1.31116269E-06
   1.40000004E-02   1.41164082E-05
   2.50000004E-02   2.93446319E-05
   3.59999985E-02   2.68300919E-05
   4.69999984E-02  -6.81719539E-05
   5.79999983E-02  -7.02677935E-05
   6.89999983E-02   8.94176701E-05
   7.99999982E-02   1.24803395E-04
   9.09999982E-02  -1.27890075E-04
  0.101999998      -9.20475359E-05
  0.112999998       1.24758444E-04
  0.123999998      -7.89994010E-06
  0.135000005      -7.50399995E-05
  0.145999998       1.00889054E-04
  0.157000005       1.91424097E-05
  0.167999998      -2.24551419E-04
  0.179000005       4.71587409E-05
  0.189999998       2.44909985E-04
  0.201000005       1.43138132E-05
  0.211999997      -1.22651734E-04
  0.223000005      -1.16370895E-04
  0.233999997       8.83172652E-06
  0.245000005       2.13529522E-04
  0.256000012       2.46535237E-05
  0.266999990      -4.19223652E-04
  0.277999997       3.38949612E-05
  0.289000005       4.35772497E-04
  0.300000012      -7.80511618E-05
  0.310999990      -2.51808669E-04
  0.321999997       1.73511085E-04
  0.333000004       4.94139531E-05
  0.344000012      -2.81366287E-04
  0.354999989       6.14394230E-05
  0.365999997       4.51106491E-04
  0.377000004      -3.66695400E-04
  0.388000011      -5.49758784E-04
  0.398999989       6.48185436E-04
  0.409999996       6.05408102E-04
  0.421000004      -6.07853988E-04
  0.432000011      -5.89808857E-04
  0.442999989       6.37352699E-04
  0.453999996       2.92139826E-04
  0.465000004      -7.16240029E-04
  0.476000011      -1.25806328E-04
  0.486999989       6.99176628E-04
  0.497999996       1.05431845E-05
  0.509000003      -5.71237470E-04
  0.519999981       3.18841514E-04
  0.531000018       1.56600712E-04
  0.541999996      -4.11145418E-04
  0.552999973       3.93837654E-05
  0.564000010       5.40065521E-04
  0.574999988      -2.71943951E-04
  0.586000025      -5.79551415E-05
  0.597000003       2.83687288E-04
  0.607999980       1.59441144E-04
  0.619000018      -5.36338775E-04
  0.629999995      -4.56583512E-04
  0.640999973       3.14448349E-04
  0.652000010       3.61363112E-04
  0.662999988      -1.50869309E-04
  0.674000025      -1.25219289E-04
  0.685000002       3.90012283E-05
  0.695999980       1.38232688E-04
  0.707000017       2.12777726E-04
  0.717999995      -3.19930463E-04
  0.728999972      -4.46268270E-04
  0.740000010       9.07426758E-04
  0.750999987       6.32206677E-04
  0.762000024      -1.12238445E-03
  0.773000002      -6.59389421E-04
  0.783999979       7.98298395E-04
  0.795000017       4.12204186E-04
  0.805999994      -6.12362579E-04
  0.816999972      -6.21678715E-04
  0.828000009       1.74866334E-04
  0.838999987       1.18904503E-03
  0.850000024       2.96801765E-04
  0.861000001      -1.54222257E-03
  0.871999979       1.46048560E-05
  0.883000016       1.97704928E-03
  0.893999994      -3.35116521E-04
  0.904999971      -2.31720088E-03
  0.916000009       1.77232825E-04
  0.926999986       1.97443203E-03
  0.938000023      -1.49208179E-04
  0.949000001      -1.35409075E-03
  0.959999979       2.57663225E-04
  0.971000016       1.03174802E-03
  0.981999993      -3.55543074E-04
  0.992999971      -9.61640384E-04
   1.00399995       4.57407907E-04
   1.01499999       9.51090129E-04
   1.02600002      -6.16023550E-04
   1.03699994      -6.81282661E-04
   1.04799998       1.08389987E-03
   1.05900002       2.92208832E-04
   1.07000005      -1.29565515E-03
   1.08099997       1.46066479E-04
   1.09200001       9.60659585E-04
   1.10300004      -7.13476096E-04
   1.11399996      -7.04123813E-04
   1.12500000       6.66522887E-04
   1.13600004       4.42294404E-04
   1.14699996       7.30016245E-06
   1.15799999      -1.18435688E-04
   1.16900003      -5.74043137E-04
   1.17999995       3.04299610E-04
   1.19099998       9.73322662E-04
   1.20200002      -8.83225643E-04
   1.21300006      -1.09961792E-03
   1.22399998       1.47017138E-03
   1.23500001       8.41231667E-04
   1.24600005      -2.07873294E-03
   1.25699997      -7.84690434E-04
   1.26800001       2.28746887E-03
   1.27900004       1.04647106E-03
   1.28999996      -1.99469202E-03
   1.30100000      -1.19965000E-03
   1.31200004       1.87999499E-03
   1.32299995       1.28646870E-03
   1.33399999      -2.11820938E-03
   1.34500003      -1.20140600E-03
   1.35599995       2.54424941E-03
   1.36699998       8.44244263E-04
   1.37800002      -2.82401592E-03
   1.38900006      -2.83689995E-04
