 -0.959999979       0.00000000
 -0.925000012      -4.39132151E-07
 -0.889999986      -1.90068829E-06
 -0.855000019      -6.30428485E-06
 -0.819999993      -1.55470007E-05
 -0.785000026      -2.56470139E-05
 -0.750000000      -4.29617394E-05
 -0.714999974      -1.06486776E-04
 -0.680000007      -2.44297407E-04
 -0.644999981      -4.32504457E-04
 -0.610000014      -6.93637587E-04
 -0.574999988      -1.15951081E-03
 -0.540000021      -1.89018331E-03
 -0.504999995      -2.76314630E-03
 -0.469999999      -3.66429030E-03
 -0.435000002      -4.52164887E-03
 -0.400000006      -5.02779428E-03
 -0.365000010      -4.65116603E-03
 -0.330000013      -2.96271686E-03
 -0.294999987       3.39439372E-04
 -0.259999990       5.53452596E-03
 -0.224999994       1.26568209E-02
 -0.189999998       2.14714184E-02
 -0.155000001       3.20059955E-02
 -0.119999997       4.49081026E-02
  -8.50000009E-02   6.12857267E-02
  -5.00000007E-02   8.23712796E-02
  -1.49999997E-02  0.108603679
   1.99999996E-02  0.137611136
   5.49999997E-02  0.161928311
   9.00000036E-02  0.167681724
  0.125000000      0.134873763
  0.159999996       4.00627218E-02
  0.194999993     -0.137814283
  0.230000004     -0.409069747
  0.264999986     -0.764124393
  0.300000012      -1.16607416
  0.335000008      -1.54836059
  0.370000005      -1.82067883
  0.405000001      -1.88401580
  0.439999998      -1.65317214
  0.474999994      -1.08246672
  0.509999990     -0.187253103
  0.545000017      0.946698487
  0.579999983       2.17023087
  0.615000010       3.29378390
  0.649999976       4.12223339
  0.685000002       4.49391365
  0.720000029       4.31414938
  0.754999995       3.57585764
  0.790000021       2.36395955
  0.824999988      0.842887223
  0.860000014     -0.771511555
  0.894999981      -2.25064993
  0.930000007      -3.39390349
  0.964999974      -4.06252718
   1.00000000      -4.20028067
   1.03499997      -3.83706737
   1.07000005      -3.07548809
   1.10500002      -2.06516004
   1.13999999     -0.973045170
   1.17499995       4.34798151E-02
   1.21000004      0.858309865
   1.24500000       1.39226389
   1.27999997       1.62107825
   1.31500006       1.57421088
   1.35000002       1.32407510
   1.38499999      0.966375709
   1.41999996      0.595007896
   1.45500004      0.279344529
   1.49000001       5.26542738E-02
   1.52499998      -8.48246813E-02
   1.55999994     -0.152069524
   1.59500003     -0.171216354
   1.63000000     -0.157554269
