 -0.959999979       5.41265361E-22
 -0.925000012       3.58333843E-08
 -0.889999986       3.69247772E-07
 -0.855000019       1.62208391E-06
 -0.819999993       4.11819747E-06
 -0.785000026       6.86676140E-06
 -0.750000000       1.07858978E-05
 -0.714999974       2.49234799E-05
 -0.680000007       6.03382578E-05
 -0.644999981       1.16289171E-04
 -0.610000014       1.91578540E-04
 -0.574999988       3.07888869E-04
 -0.540000021       4.91037033E-04
 -0.504999995       7.32501911E-04
 -0.469999999       9.95204435E-04
 -0.435000002       1.23009866E-03
 -0.400000006       1.35419762E-03
 -0.365000010       1.24724512E-03
 -0.330000013       7.96924229E-04
 -0.294999987      -7.11723187E-05
 -0.259999990      -1.37118320E-03
 -0.224999994      -2.99386121E-03
 -0.189999998      -4.67867544E-03
 -0.155000001      -6.07045041E-03
 -0.119999997      -6.73379051E-03
  -8.50000009E-02  -6.05648383E-03
  -5.00000007E-02  -3.14781675E-03
  -1.49999997E-02   3.18225264E-03
   1.99999996E-02   1.42452950E-02
   5.49999997E-02   3.07719354E-02
   9.00000036E-02   5.14451452E-02
  0.125000000       7.09412545E-02
  0.159999996       7.82560110E-02
  0.194999993       5.64330071E-02
  0.230000004      -1.50759248E-02
  0.264999986     -0.154753834
  0.300000012     -0.370743066
  0.335000008     -0.652087510
  0.370000005     -0.962592065
  0.405000001      -1.24050903
  0.439999998      -1.40612912
  0.474999994      -1.37710571
  0.509999990      -1.08889937
  0.545000017     -0.515796065
  0.579999983      0.313120693
  0.615000010       1.30831349
  0.649999976       2.32768989
  0.685000002       3.19827318
  0.720000029       3.74857020
  0.754999995       3.84526253
  0.790000021       3.42550993
  0.824999988       2.51627970
  0.860000014       1.23490858
  0.894999981     -0.230492622
  0.930000007      -1.65709305
  0.964999974      -2.83139682
   1.00000000      -3.59037042
   1.03499997      -3.84988427
   1.07000005      -3.61477113
   1.10500002      -2.96986318
   1.13999999      -2.05602980
   1.17499995      -1.03844786
   1.21000004      -7.50299022E-02
   1.24500000      0.708872676
   1.27999997       1.23619175
   1.31500006       1.48331082
   1.35000002       1.47530985
   1.38499999       1.27326977
   1.41999996      0.956797838
   1.45500004      0.605704963
   1.49000001      0.284919828
   1.52499998       3.58328559E-02
   1.55999994     -0.124873742
   1.59500003     -0.200568169
   1.63000000     -0.207642943
