 -0.959999979       0.00000000
 -0.925000012       0.00000000
 -0.889999986       0.00000000
 -0.855000019       1.22523161E-12
 -0.819999993       4.78560377E-12
 -0.785000026       1.06558067E-12
 -0.750000000      -1.44804273E-11
 -0.714999974      -6.84226079E-11
 -0.680000007      -2.04292971E-10
 -0.644999981       2.62902339E-10
 -0.610000014       2.76473483E-10
 -0.574999988      -3.56360386E-10
 -0.540000021       2.91756563E-10
 -0.504999995      -1.24318569E-10
 -0.469999999       5.71040371E-09
 -0.435000002      -1.94159355E-09
 -0.400000006      -8.51991899E-09
 -0.365000010       9.29269373E-09
 -0.330000013       5.88853455E-09
 -0.294999987      -3.96274054E-08
 -0.259999990      -7.40587636E-09
 -0.224999994       1.92406819E-08
 -0.189999998      -5.67833318E-08
 -0.155000001       2.35160531E-08
 -0.119999997       5.72579779E-08
  -8.50000009E-02  -5.52565531E-08
  -5.00000007E-02  -8.68168559E-09
  -1.49999997E-02   7.83361216E-08
   1.99999996E-02  -1.62392322E-08
   5.49999997E-02  -9.58541619E-08
   9.00000036E-02   1.08694238E-07
  0.125000000      -6.21152907E-08
  0.159999996      -1.38604108E-07
  0.194999993       7.28003542E-08
  0.230000004       1.65847656E-08
  0.264999986      -2.12274500E-08
  0.300000012       1.15527721E-08
  0.335000008      -3.10307620E-08
  0.370000005      -1.57798663E-08
  0.405000001      -1.30669218E-08
  0.439999998      -5.88826090E-08
  0.474999994       4.31814264E-08
  0.509999990       2.90362099E-08
  0.545000017      -8.15810992E-08
  0.579999983       4.35072671E-08
  0.615000010       4.69808086E-08
  0.649999976      -1.59863617E-07
  0.685000002      -6.92004036E-08
  0.720000029       1.27213767E-07
  0.754999995      -9.50748031E-08
  0.790000021      -1.27555921E-07
  0.824999988       1.97989849E-07
  0.860000014       1.02706757E-07
  0.894999981      -1.64761786E-07
  0.930000007      -3.14245128E-08
  0.964999974       1.00486432E-07
   1.00000000       2.04329709E-08
   1.03499997       8.38275049E-09
   1.07000005       1.01828466E-08
   1.10500002       2.06305639E-09
   1.13999999       1.83773086E-08
   1.17499995      -2.95512148E-08
   1.21000004      -4.03250811E-09
   1.24500000       8.02761519E-08
   1.27999997      -3.30673728E-08
   1.31500006      -1.26107452E-07
   1.35000002      -9.23792687E-09
   1.38499999      -8.87535823E-09
   1.41999996      -6.83753569E-08
   1.45500004       4.24842099E-08
   1.49000001       6.52720757E-08
   1.52499998      -3.54927998E-08
   1.55999994      -2.46555150E-08
   1.59500003      -2.76001053E-08
   1.63000000      -4.30601403E-08
