 -0.959999979       0.00000000
 -0.925000012       0.00000000
 -0.889999986      -1.72071253E-07
 -0.855000019      -1.94148879E-06
 -0.819999993      -5.00256556E-06
 -0.785000026      -8.94550431E-06
 -0.750000000      -1.98639027E-05
 -0.714999974      -4.68804465E-05
 -0.680000007      -9.82942220E-05
 -0.644999981      -1.92882711E-04
 -0.610000014      -3.66944296E-04
 -0.574999988      -6.67830056E-04
 -0.540000021      -1.15455268E-03
 -0.504999995      -1.89705065E-03
 -0.469999999      -2.95281713E-03
 -0.435000002      -4.33865050E-03
 -0.400000006      -6.00330811E-03
 -0.365000010      -7.77835399E-03
 -0.330000013      -9.33855772E-03
 -0.294999987      -1.02299908E-02
 -0.259999990      -9.95597150E-03
 -0.224999994      -8.10006075E-03
 -0.189999998      -4.50896798E-03
 -0.155000001       5.03558898E-04
 -0.119999997       6.04487117E-03
  -8.50000009E-02   1.06708398E-02
  -5.00000007E-02   1.25407102E-02
  -1.49999997E-02   9.71042924E-03
   1.99999996E-02   5.07702352E-04
   5.49999997E-02  -1.61681399E-02
   9.00000036E-02  -4.06907201E-02
  0.125000000      -7.26201683E-02
  0.159999996     -0.110612653
  0.194999993     -0.152266189
  0.230000004     -0.193832844
  0.264999986     -0.229899958
  0.300000012     -0.253384322
  0.335000008     -0.256177604
  0.370000005     -0.230573565
  0.405000001     -0.171344399
  0.439999998      -7.79518187E-02
  0.474999994       4.39415462E-02
  0.509999990      0.182388350
  0.545000017      0.320741624
  0.579999983      0.440595180
  0.615000010      0.525274992
  0.649999976      0.562856138
  0.685000002      0.547974885
  0.720000029      0.482296407
  0.754999995      0.373913139
  0.790000021      0.236079335
  0.824999988       8.55876803E-02
  0.860000014      -5.91927432E-02
  0.894999981     -0.180779174
  0.930000007     -0.265457124
  0.964999974     -0.306007087
   1.00000000     -0.303371340
   1.03499997     -0.266411036
   1.07000005     -0.209420279
   1.10500002     -0.147970602
   1.13999999      -9.45145190E-02
   1.17499995      -5.54208197E-02
   1.21000004      -3.05651277E-02
   1.24500000      -1.54964412E-02
   1.27999997      -5.01369825E-03
   1.31500006       3.68490489E-03
   1.35000002       9.84205492E-03
   1.38499999       1.04255108E-02
   1.41999996       2.98504345E-03
   1.45500004      -1.16487853E-02
   1.49000001      -2.85076182E-02
   1.52499998      -4.01627123E-02
   1.55999994      -4.01853807E-02
   1.59500003      -2.65763663E-02
   1.63000000      -3.27305472E-03
