 -0.800000012       0.00000000
 -0.788999975       0.00000000
 -0.777999997       0.00000000
 -0.767000020      -1.45502608E-14
 -0.755999982      -2.19959007E-14
 -0.745000005       1.66987030E-13
 -0.734000027      -4.75981234E-13
 -0.722999990      -6.18784158E-13
 -0.712000012       9.64125589E-13
 -0.700999975       3.13813992E-12
 -0.689999998      -3.69224313E-12
 -0.679000020      -5.70285095E-12
 -0.667999983       1.08480750E-11
 -0.657000005       1.66321893E-12
 -0.646000028      -6.70318315E-12
 -0.634999990       1.40309439E-11
 -0.624000013      -1.14320203E-11
 -0.612999976      -5.43553015E-11
 -0.601999998       1.76685125E-11
 -0.591000021       1.24612959E-10
 -0.579999983       8.21085040E-12
 -0.569000006      -1.55479629E-10
 -0.558000028      -6.74505243E-11
 -0.546999991       1.74811388E-10
 -0.536000013       3.10128867E-10
 -0.524999976      -4.45029902E-10
 -0.513999999      -9.81934645E-10
 -0.503000021       1.05946751E-09
 -0.492000014       1.80153104E-09
 -0.481000006      -1.49264900E-09
 -0.469999999      -1.87095606E-09
 -0.458999991       2.66727151E-09
 -0.448000014       5.21107324E-10
 -0.437000006      -6.96936908E-09
 -0.425999999       2.05779681E-11
 -0.414999992       1.25570851E-08
 -0.404000014       3.96951805E-09
 -0.393000007      -1.24140804E-08
 -0.381999999      -7.84238718E-09
 -0.370999992       6.34703090E-09
 -0.360000014       7.44121076E-09
 -0.349000007      -4.92942442E-09
 -0.338000000      -2.86143447E-08
 -0.326999992       4.69993955E-09
 -0.316000015       1.05533275E-07
 -0.305000007       2.34523174E-08
 -0.294000000      -1.97897961E-07
 -0.282999992      -8.06111657E-08
 -0.272000015       2.04620591E-07
 -0.261000007       1.26165574E-07
 -0.250000000      -9.14598246E-08
 -0.238999993      -1.50033372E-07
 -0.228000000      -6.42682849E-08
 -0.216999993       1.79710554E-07
 -0.206000000       1.81945481E-07
 -0.194999993      -8.86661695E-08
 -0.184000000      -1.53292632E-07
 -0.172999993      -3.22774127E-07
 -0.162000000      -3.23891612E-07
 -0.150999993       7.24286167E-07
 -0.140000001       1.10347776E-06
 -0.128999993      -5.15349768E-07
 -0.118000001      -1.42943236E-06
 -0.107000001      -2.67273606E-07
  -9.60000008E-02   1.01706087E-06
  -8.50000009E-02   1.34484924E-06
  -7.40000010E-02  -2.15125496E-07
  -6.30000010E-02  -2.39640804E-06
  -5.20000011E-02  -3.31341312E-07
  -4.10000011E-02   3.31157935E-06
  -2.99999993E-02   8.78495882E-07
  -1.89999994E-02  -3.48108915E-06
  -8.00000038E-03  -1.71103193E-06
   3.00000003E-03   2.14793113E-06
   1.40000004E-02   2.15687078E-06
   2.50000004E-02  -2.83662672E-07
   3.59999985E-02  -1.93452411E-06
   4.69999984E-02  -8.43882844E-07
   5.79999983E-02   1.74862510E-06
   6.89999983E-02   8.05488583E-07
   7.99999982E-02  -1.53521830E-06
   9.09999982E-02  -3.49220386E-07
  0.101999998       6.60544742E-07
  0.112999998       9.43215639E-07
  0.123999998       1.41624028E-07
  0.135000005      -3.35677191E-06
  0.145999998      -1.69101111E-06
  0.157000005       6.40834105E-06
  0.167999998       4.32241450E-06
  0.179000005      -6.27408963E-06
  0.189999998      -5.12981069E-06
  0.201000005       2.14113106E-06
  0.211999997       3.90522837E-06
  0.223000005       4.04826324E-06
  0.233999997      -1.07715448E-06
  0.245000005      -1.06843336E-05
  0.256000012      -5.48739808E-06
  0.266999990       8.05324180E-06
  0.277999997       7.24271104E-06
  0.289000005       2.73711112E-06
  0.300000012       2.68943290E-06
  0.310999990      -6.60783689E-06
  0.321999997      -1.11849549E-05
  0.333000004       4.41777183E-06
  0.344000012       1.10331366E-05
  0.354999989      -1.17627316E-07
  0.365999997      -5.77644596E-06
  0.377000004      -4.24775999E-06
  0.388000011       2.75499133E-06
  0.398999989       5.05546996E-06
  0.409999996      -2.72801390E-06
  0.421000004      -6.89986609E-06
  0.432000011      -4.20604192E-06
  0.442999989       2.06365553E-06
  0.453999996       6.71229054E-06
  0.465000004       7.66585708E-06
  0.476000011      -3.91777235E-07
  0.486999989      -7.87727186E-06
  0.497999996      -2.68033682E-06
  0.509000003       3.08873814E-06
  0.519999981      -6.30169723E-07
  0.531000018      -3.15712009E-06
  0.541999996       3.80391248E-06
  0.552999973       1.13370852E-05
  0.564000010       7.28442910E-06
  0.574999988      -1.63640107E-05
  0.586000025      -2.38971843E-05
  0.597000003       1.09318189E-05
  0.607999980       2.32209022E-05
  0.619000018       3.14684507E-06
  0.629999995      -4.60316841E-07
  0.640999973      -1.18971511E-05
  0.652000010      -2.03362124E-05
  0.662999988       8.62835896E-06
  0.674000025       1.81878604E-05
  0.685000002      -8.89341845E-06
  0.695999980      -6.81941128E-06
  0.707000017       7.53175982E-06
  0.717999995      -5.72280987E-06
  0.728999972      -7.64267384E-07
  0.740000010       1.30147628E-05
  0.750999987      -6.41414817E-06
  0.762000024      -6.74789726E-06
  0.773000002       1.49457337E-05
  0.783999979      -3.38657674E-06
  0.795000017      -1.82622080E-05
  0.805999994       9.62960257E-06
  0.816999972       1.27048525E-05
  0.828000009      -9.31060640E-06
  0.838999987      -3.26738132E-06
  0.850000024       5.18955767E-06
  0.861000001      -1.69250791E-06
  0.871999979      -2.28029194E-06
  0.883000016      -1.07204215E-07
  0.893999994       3.35841287E-06
  0.904999971       4.03186914E-06
  0.916000009      -1.07484057E-05
  0.926999986      -6.49311687E-06
  0.938000023       1.93902451E-05
  0.949000001       3.75772015E-06
  0.959999979      -2.07906487E-05
  0.971000016       5.59929413E-06
  0.981999993       1.51707136E-05
  0.992999971      -1.00809111E-05
   1.00399995      -2.40470308E-06
   1.01499999       1.17713034E-06
   1.02600002      -1.86570451E-05
   1.03699994       9.25860422E-06
   1.04799998       3.27491107E-05
   1.05900002      -1.22621914E-05
   1.07000005      -2.25607055E-05
   1.08099997       1.60736236E-05
   1.09200001      -4.79687174E-07
   1.10300004      -2.34621202E-05
   1.11399996       9.31671821E-06
   1.12500000       2.08787096E-05
   1.13600004       1.09668133E-06
   1.14699996      -1.30958324E-06
   1.15799999      -9.16234967E-06
   1.16900003      -1.29535192E-05
   1.17999995       8.95503581E-06
   1.19099998       8.35086303E-06
   1.20200002      -6.77470734E-06
   1.21300006       1.67757639E-06
   1.22399998      -3.25861902E-06
   1.23500001      -8.35088758E-06
   1.24600005       2.01338280E-05
   1.25699997       1.23270656E-05
   1.26800001      -2.56921012E-05
   1.27900004      -5.75986678E-06
   1.28999996       1.35190940E-05
   1.30100000      -1.62318447E-05
   1.31200004      -1.94033055E-06
   1.32299995       3.13032288E-05
   1.33399999      -3.60764056E-06
   1.34500003      -2.36622636E-05
   1.35599995       9.80870573E-06
   1.36699998       4.46696413E-06
   1.37800002      -1.43091638E-05
   1.38900006       8.40763460E-06
