 -0.800000012       0.00000000
 -0.788999975       0.00000000
 -0.777999997      -2.68132180E-06
 -0.767000020       1.79974595E-05
 -0.755999982      -1.94886961E-05
 -0.745000005      -9.68139939E-05
 -0.734000027       2.06079494E-04
 -0.722999990       2.18473346E-04
 -0.712000012      -7.88009085E-04
 -0.700999975      -1.33899011E-04
 -0.689999998       1.88882253E-03
 -0.679000020      -7.29717140E-04
 -0.667999983      -3.38860531E-03
 -0.657000005       2.95423670E-03
 -0.646000028       5.03067765E-03
 -0.634999990      -6.17908966E-03
 -0.624000013      -6.20925054E-03
 -0.612999976       8.61373916E-03
 -0.601999998       5.41854883E-03
 -0.591000021      -8.68692435E-03
 -0.579999983      -1.36859599E-03
 -0.569000006       7.20718829E-03
 -0.558000028      -3.74530209E-03
 -0.546999991      -5.42401522E-03
 -0.536000013       5.08706225E-03
 -0.524999976       2.52072886E-03
 -0.513999999      -1.35048723E-03
 -0.503000021       7.79100956E-05
 -0.492000014      -5.89587772E-03
 -0.481000006       2.82332767E-03
 -0.469999999       1.94087531E-02
 -0.458999991      -7.44693913E-03
 -0.448000014      -3.67651545E-02
 -0.437000006       2.37348693E-04
 -0.425999999       3.29563953E-02
 -0.414999992       2.17974838E-03
 -0.404000014      -1.24045191E-02
 -0.393000007       5.27939294E-03
 -0.381999999      -1.33204469E-02
 -0.370999992      -2.54409648E-02
 -0.360000014       1.37349041E-02
 -0.349000007       1.86658259E-02
 -0.338000000      -2.74224672E-02
 -0.326999992      -3.76329198E-02
 -0.316000015      -2.02267189E-02
 -0.305000007      -1.71133634E-02
 -0.294000000      -2.45810742E-03
 -0.282999992      -7.09052803E-03
 -0.272000015      -6.85361326E-02
 -0.261000007      -9.67227817E-02
 -0.250000000      -5.67763746E-02
 -0.238999993      -5.55017591E-02
 -0.228000000     -0.103029147
 -0.216999993     -0.119012780
 -0.206000000     -0.138317049
 -0.194999993     -0.200416982
 -0.184000000     -0.228924885
 -0.172999993     -0.213509575
 -0.162000000     -0.242063344
 -0.150999993     -0.311443180
 -0.140000001     -0.354283839
 -0.128999993     -0.376016587
 -0.118000001     -0.405590236
 -0.107000001     -0.433984697
  -9.60000008E-02 -0.456733704
  -8.50000009E-02 -0.476676524
  -7.40000010E-02 -0.486288100
  -6.30000010E-02 -0.489656687
  -5.20000011E-02 -0.489162147
  -4.10000011E-02 -0.462337852
  -2.99999993E-02 -0.401624233
  -1.89999994E-02 -0.337880045
  -8.00000038E-03 -0.289859712
   3.00000003E-03 -0.235924855
   1.40000004E-02 -0.163702488
   2.50000004E-02 -0.100946404
   3.59999985E-02  -6.37952983E-02
   4.69999984E-02  -3.49721722E-02
   5.79999983E-02  -3.31152044E-02
   6.89999983E-02 -0.120211080
   7.99999982E-02 -0.308134079
   9.09999982E-02 -0.560652018
  0.101999998     -0.891403794
  0.112999998      -1.35087049
  0.123999998      -1.94627619
  0.135000005      -2.66827416
  0.145999998      -3.53765225
  0.157000005      -4.55458450
  0.167999998      -5.66582823
  0.179000005      -6.82740736
  0.189999998      -8.03625965
  0.201000005      -9.26169491
  0.211999997      -10.4090643
  0.223000005      -11.3889627
  0.233999997      -12.1457500
  0.245000005      -12.5917969
  0.256000012      -12.6118641
  0.266999990      -12.1312752
  0.277999997      -11.0763922
  0.289000005      -9.34058285
  0.300000012      -6.87207508
  0.310999990      -3.68797088
  0.321999997      0.221896008
  0.333000004       4.86869287
  0.344000012       10.1830997
  0.354999989       16.0483856
  0.365999997       22.3081703
  0.377000004       28.7415543
  0.388000011       35.1400375
  0.398999989       41.3106155
  0.409999996       46.9723663
  0.421000004       51.8130951
  0.432000011       55.5924759
  0.442999989       58.0552750
  0.453999996       58.9211617
  0.465000004       58.0377159
  0.476000011       55.3421059
  0.486999989       50.7314873
  0.497999996       44.1757164
  0.509000003       35.8180084
  0.519999981       25.8506927
  0.531000018       14.4736700
  0.541999996       2.00484848
  0.552999973      -11.1308355
  0.564000010      -24.5113010
  0.574999988      -37.7211914
  0.586000025      -50.3002663
  0.597000003      -61.7686348
  0.607999980      -71.7116699
  0.619000018      -79.8023682
  0.629999995      -85.7456360
  0.640999973      -89.2948837
  0.652000010      -90.3292389
  0.662999988      -88.8504868
  0.674000025      -84.9175110
  0.685000002      -78.6870422
  0.695999980      -70.4414444
  0.707000017      -60.4956856
  0.717999995      -49.1902275
  0.728999972      -36.9528351
  0.740000010      -24.2476807
  0.750999987      -11.4996262
  0.762000024      0.891805649
  0.773000002       12.5468035
  0.783999979       23.1317940
  0.795000017       32.3757477
  0.805999994       40.0878944
  0.816999972       46.1484604
  0.828000009       50.4836273
  0.838999987       53.1011467
  0.850000024       54.1028290
  0.861000001       53.6097298
  0.871999979       51.7600746
  0.883000016       48.7720070
  0.893999994       44.8884850
  0.904999971       40.3053360
  0.916000009       35.2344360
  0.926999986       29.9238682
  0.938000023       24.5716076
  0.949000001       19.3162785
  0.959999979       14.2980680
  0.971000016       9.65387821
  0.981999993       5.47642136
  0.992999971       1.80137825
   1.00399995      -1.36075366
   1.01499999      -3.98233008
   1.02600002      -6.04907227
   1.03699994      -7.61688852
   1.04799998      -8.75427341
   1.05900002      -9.47635365
   1.07000005      -9.81682396
   1.08099997      -9.86697483
   1.09200001      -9.68290234
   1.10300004      -9.27966022
   1.11399996      -8.72031116
   1.12500000      -8.08669662
   1.13600004      -7.39686155
   1.14699996      -6.64862108
   1.15799999      -5.88924313
   1.16900003      -5.17447710
   1.17999995      -4.50971413
   1.19099998      -3.87996316
   1.20200002      -3.30172300
   1.21300006      -2.79998541
   1.22399998      -2.36468267
   1.23500001      -1.98059928
   1.24600005      -1.66069043
   1.25699997      -1.40596926
   1.26800001      -1.18978906
   1.27900004      -1.00233448
   1.28999996     -0.847082198
   1.30100000     -0.712692916
   1.31200004     -0.595776320
   1.32299995     -0.500316441
   1.33399999     -0.410476297
   1.34500003     -0.321061373
   1.35599995     -0.247312769
   1.36699998     -0.177689910
   1.37800002      -9.84911174E-02
   1.38900006      -3.63142267E-02
