 -0.959999979       0.00000000
 -0.925000012       0.00000000
 -0.889999986       1.09310641E-07
 -0.855000019       1.50195706E-06
 -0.819999993       4.31901208E-06
 -0.785000026       8.17967975E-06
 -0.750000000       1.73402386E-05
 -0.714999974       4.01346624E-05
 -0.680000007       8.54633472E-05
 -0.644999981       1.68707658E-04
 -0.610000014       3.19931976E-04
 -0.574999988       5.83029003E-04
 -0.540000021       1.01184449E-03
 -0.504999995       1.66479393E-03
 -0.469999999       2.58833077E-03
 -0.435000002       3.79076414E-03
 -0.400000006       5.21322899E-03
 -0.365000010       6.70006266E-03
 -0.330000013       7.98902009E-03
 -0.294999987       8.76130443E-03
 -0.259999990       8.77473596E-03
 -0.224999994       8.07170384E-03
 -0.189999998       7.22346781E-03
 -0.155000001       7.52114598E-03
 -0.119999997       1.09702451E-02
  -8.50000009E-02   1.99475102E-02
  -5.00000007E-02   3.64531763E-02
  -1.49999997E-02   6.10293113E-02
   1.99999996E-02   9.16092843E-02
   5.49999997E-02  0.122750878
   9.00000036E-02  0.145763367
  0.125000000      0.150088444
  0.159999996      0.125933051
  0.194999993       6.76360130E-02
  0.230000004      -2.32432932E-02
  0.264999986     -0.136330664
  0.300000012     -0.253294945
  0.335000008     -0.351405054
  0.370000005     -0.409056813
  0.405000001     -0.411665082
  0.439999998     -0.355979711
  0.474999994     -0.251305789
  0.509999990     -0.117143735
  0.545000017       2.19879113E-02
  0.579999983      0.142819270
  0.615000010      0.228684723
  0.649999976      0.272460729
  0.685000002      0.276542574
  0.720000029      0.250318080
  0.754999995      0.206296220
  0.790000021      0.156268626
  0.824999988      0.108632736
  0.860000014       6.74629137E-02
  0.894999981       3.32787484E-02
  0.930000007       4.88002272E-03
  0.964999974      -1.87212545E-02
   1.00000000      -3.71884070E-02
   1.03499997      -4.90322709E-02
   1.07000005      -5.28538488E-02
   1.10500002      -4.88425381E-02
   1.13999999      -3.95333841E-02
   1.17499995      -2.92199273E-02
   1.21000004      -2.21967921E-02
   1.24500000      -2.07304154E-02
   1.27999997      -2.38992795E-02
   1.31500006      -2.80295648E-02
   1.35000002      -2.85831410E-02
   1.38499999      -2.25344319E-02
   1.41999996      -9.98753123E-03
   1.45500004       5.80042275E-03
   1.49000001       1.99565645E-02
   1.52499998       2.82377042E-02
   1.55999994       2.88168844E-02
   1.59500003       2.27829665E-02
   1.63000000       1.32757025E-02
