 -0.959999979       0.00000000
 -0.925000012       1.72140123E-03
 -0.889999986       5.69226826E-03
 -0.855000019       3.30914138E-03
 -0.819999993       5.80981467E-03
 -0.785000026       3.13571654E-02
 -0.750000000       6.00525886E-02
 -0.714999974       8.89529586E-02
 -0.680000007      0.167205364
 -0.644999981      0.299084216
 -0.610000014      0.444502473
 -0.574999988      0.624048710
 -0.540000021      0.841688395
 -0.504999995      0.977588594
 -0.469999999      0.912969828
 -0.435000002      0.594559491
 -0.400000006      -8.45612064E-02
 -0.365000010      -1.19803345
 -0.330000013      -2.56769323
 -0.294999987      -3.82567930
 -0.259999990      -4.55107117
 -0.224999994      -4.25112724
 -0.189999998      -2.58478165
 -0.155000001      0.200477108
 -0.119999997       3.21683812
  -8.50000009E-02   5.20032644
  -5.00000007E-02   4.74540281
  -1.49999997E-02  0.854518712
   1.99999996E-02  -6.18982840
   5.49999997E-02  -14.4858961
   9.00000036E-02  -20.9575882
  0.125000000      -22.0897560
  0.159999996      -15.0669422
  0.194999993      0.655062497
  0.230000004       22.4335728
  0.264999986       44.8968620
  0.300000012       61.3059845
  0.335000008       65.5281448
  0.370000005       54.4418716
  0.405000001       29.5487404
  0.439999998      -3.30549860
  0.474999994      -35.7794800
  0.509999990      -59.7330818
  0.545000017      -70.1047287
  0.579999983      -66.5585327
  0.615000010      -52.8505096
  0.649999976      -34.6306915
  0.685000002      -16.9734898
  0.720000029      -2.49485779
  0.754999995       8.99667454
  0.790000021       18.9836731
  0.824999988       28.2122116
  0.860000014       35.7081566
  0.894999981       39.0847664
  0.930000007       35.8630638
  0.964999974       25.3663273
   1.00000000       9.92409611
   1.03499997      -5.73595238
   1.07000005      -16.5101089
   1.10500002      -19.1507969
   1.13999999      -13.8051834
   1.17499995      -4.08864212
   1.21000004       4.66185045
   1.24500000       8.06792927
   1.27999997       4.77715015
   1.31500006      -3.00286269
   1.35000002      -10.6694641
   1.38499999      -13.6841183
   1.41999996      -10.0502405
   1.45500004      -1.28750646
   1.49000001       8.47798252
   1.52499998       14.5561428
   1.55999994       13.9829693
   1.59500003       7.08525896
   1.63000000      -2.70624685
