 -0.800000012       0.00000000
 -0.788999975       0.00000000
 -0.777999997       0.00000000
 -0.767000020       0.00000000
 -0.755999982      -4.00826150E-10
 -0.745000005      -9.21744125E-10
 -0.734000027       9.91880800E-09
 -0.722999990      -7.32168992E-09
 -0.712000012      -4.33051994E-08
 -0.700999975       5.38538636E-08
 -0.689999998       9.37158333E-08
 -0.679000020      -1.74544979E-07
 -0.667999983      -9.48421288E-08
 -0.657000005       3.94308842E-07
 -0.646000028      -5.36257225E-08
 -0.634999990      -6.99512270E-07
 -0.624000013       3.50492769E-07
 -0.612999976       9.31915736E-07
 -0.601999998      -6.28951796E-07
 -0.591000021      -6.98927579E-07
 -0.579999983       8.10525421E-07
 -0.569000006      -2.78671138E-07
 -0.558000028      -1.09185123E-06
 -0.546999991       1.48757908E-06
 -0.536000013       1.41583121E-06
 -0.524999976      -1.82169936E-06
 -0.513999999      -9.66333687E-07
 -0.503000021       1.11204099E-06
 -0.492000014      -4.47767491E-07
 -0.481000006      -2.81629902E-08
 -0.469999999       1.56639737E-06
 -0.458999991      -1.44990236E-06
 -0.448000014      -1.56296937E-06
 -0.437000006       3.47432069E-06
 -0.425999999       1.36382243E-06
 -0.414999992      -4.69158249E-06
 -0.404000014      -3.57443923E-06
 -0.393000007      -3.43547572E-06
 -0.381999999      -6.45696718E-06
 -0.370999992      -1.62887648E-06
 -0.360000014      -1.38437287E-07
 -0.349000007      -1.29596037E-05
 -0.338000000      -1.94758395E-05
 -0.326999992      -1.46210105E-05
 -0.316000015      -2.06348941E-05
 -0.305000007      -3.39055478E-05
 -0.294000000      -4.21849800E-05
 -0.282999992      -5.99182204E-05
 -0.272000015      -8.55204926E-05
 -0.261000007      -1.00918493E-04
 -0.250000000      -1.22793470E-04
 -0.238999993      -1.67934675E-04
 -0.228000000      -2.19215086E-04
 -0.216999993      -2.78974680E-04
 -0.206000000      -3.63318046E-04
 -0.194999993      -4.54539782E-04
 -0.184000000      -5.52648678E-04
 -0.172999993      -6.95933646E-04
 -0.162000000      -8.80649837E-04
 -0.150999993      -1.07769854E-03
 -0.140000001      -1.30848761E-03
 -0.128999993      -1.59442355E-03
 -0.118000001      -1.91696128E-03
 -0.107000001      -2.28441879E-03
  -9.60000008E-02  -2.72103748E-03
  -8.50000009E-02  -3.20851337E-03
  -7.40000010E-02  -3.73884337E-03
  -6.30000010E-02  -4.34075668E-03
  -5.20000011E-02  -5.00970846E-03
  -4.10000011E-02  -5.72250318E-03
  -2.99999993E-02  -6.49265945E-03
  -1.89999994E-02  -7.32114306E-03
  -8.00000038E-03  -8.17828998E-03
   3.00000003E-03  -9.06809606E-03
   1.40000004E-02  -1.00042932E-02
   2.50000004E-02  -1.09556494E-02
   3.59999985E-02  -1.19002890E-02
   4.69999984E-02  -1.28550492E-02
   5.79999983E-02  -1.38183096E-02
   6.89999983E-02  -1.47786895E-02
   7.99999982E-02  -1.57595035E-02
   9.09999982E-02  -1.67838093E-02
  0.101999998      -1.78592931E-02
  0.112999998      -1.90305393E-02
  0.123999998      -2.03749835E-02
  0.135000005      -2.19610762E-02
  0.145999998      -2.38688011E-02
  0.157000005      -2.62095798E-02
  0.167999998      -2.91002728E-02
  0.179000005      -3.26688141E-02
  0.189999998      -3.70739624E-02
  0.201000005      -4.24710661E-02
  0.211999997      -4.89897840E-02
  0.223000005      -5.67660034E-02
  0.233999997      -6.59371912E-02
  0.245000005      -7.65931085E-02
  0.256000012      -8.87737274E-02
  0.266999990     -0.102487981
  0.277999997     -0.117681444
  0.289000005     -0.134211496
  0.300000012     -0.151869357
  0.310999990     -0.170371607
  0.321999997     -0.189322397
  0.333000004     -0.208227962
  0.344000012     -0.226527050
  0.354999989     -0.243579179
  0.365999997     -0.258670062
  0.377000004     -0.271049500
  0.388000011     -0.279939294
  0.398999989     -0.284546971
  0.409999996     -0.284125954
  0.421000004     -0.278007656
  0.432000011     -0.265603036
  0.442999989     -0.246453106
  0.453999996     -0.220279619
  0.465000004     -0.186981022
  0.476000011     -0.146652982
  0.486999989      -9.96381938E-02
  0.497999996      -4.65150811E-02
  0.509000003       1.19321020E-02
  0.519999981       7.46952817E-02
  0.531000018      0.140550375
  0.541999996      0.208116397
  0.552999973      0.275892258
  0.564000010      0.342285782
  0.574999988      0.405679077
  0.586000025      0.464486301
  0.597000003      0.517191947
  0.607999980      0.562410176
  0.619000018      0.598945618
  0.629999995      0.625827968
  0.640999973      0.642347872
  0.652000010      0.648088694
  0.662999988      0.642931581
  0.674000025      0.627056837
  0.685000002      0.600944698
  0.695999980      0.565352559
  0.707000017      0.521276116
  0.717999995      0.469916403
  0.728999972      0.412638307
  0.740000010      0.350913525
  0.750999987      0.286268234
  0.762000024      0.220237836
  0.773000002      0.154317632
  0.783999979       8.99104550E-02
  0.795000017       2.82841846E-02
  0.805999994      -2.94528659E-02
  0.816999972      -8.23692754E-02
  0.828000009     -0.129731163
  0.838999987     -0.171014607
  0.850000024     -0.205900490
  0.861000001     -0.234264031
  0.871999979     -0.256163746
  0.883000016     -0.271819115
  0.893999994     -0.281580895
  0.904999971     -0.285909027
  0.916000009     -0.285355926
  0.926999986     -0.280536741
  0.938000023     -0.272089839
  0.949000001     -0.260653496
  0.959999979     -0.246862769
  0.971000016     -0.231332764
  0.981999993     -0.214627936
  0.992999971     -0.197253630
   1.00399995     -0.179661959
   1.01499999     -0.162238687
   1.02600002     -0.145293921
   1.03699994     -0.129079521
   1.04799998     -0.113796182
   1.05900002      -9.95804891E-02
   1.07000005      -8.65111277E-02
   1.08099997      -7.46266991E-02
   1.09200001      -6.39289990E-02
   1.10300004      -5.43909296E-02
   1.11399996      -4.59685624E-02
   1.12500000      -3.85940149E-02
   1.13600004      -3.21784094E-02
   1.14699996      -2.66379900E-02
   1.15799999      -2.18928289E-02
   1.16900003      -1.78492665E-02
   1.17999995      -1.44212982E-02
   1.19099998      -1.15458835E-02
   1.20200002      -9.15012602E-03
   1.21300006      -7.14957574E-03
   1.22399998      -5.49246883E-03
   1.23500001      -4.14919527E-03
   1.24600005      -3.06741241E-03
   1.25699997      -2.19391333E-03
   1.26800001      -1.50762766E-03
   1.27900004      -9.86313680E-04
   1.28999996      -5.90187148E-04
   1.30100000      -2.98916711E-04
   1.31200004      -1.07296342E-04
   1.32299995       9.47295666E-06
   1.33399999       7.65971272E-05
   1.34500003       9.75994190E-05
   1.35599995       8.06202806E-05
   1.36699998       4.10144203E-05
   1.37800002      -2.13075800E-05
   1.38900006      -1.01667451E-04
