 -0.959999979       0.00000000
 -0.925000012       0.00000000
 -0.889999986       9.98684939E-08
 -0.855000019       1.17746663E-06
 -0.819999993       9.42757936E-07
 -0.785000026      -5.45697901E-07
 -0.750000000       2.50904941E-06
 -0.714999974       7.95561118E-06
 -0.680000007       9.31295654E-06
 -0.644999981       1.14667091E-05
 -0.610000014       1.61722000E-05
 -0.574999988       1.09648117E-05
 -0.540000021      -1.61355802E-05
 -0.504999995      -8.47714400E-05
 -0.469999999      -2.36324267E-04
 -0.435000002      -5.16815169E-04
 -0.400000006      -9.76169773E-04
 -0.365000010      -1.68152957E-03
 -0.330000013      -2.69367546E-03
 -0.294999987      -4.05880343E-03
 -0.259999990      -5.85643016E-03
 -0.224999994      -8.25180579E-03
 -0.189999998      -1.15653928E-02
 -0.155000001      -1.63810737E-02
 -0.119999997      -2.35810746E-02
  -8.50000009E-02  -3.42056863E-02
  -5.00000007E-02  -4.91187945E-02
  -1.49999997E-02  -6.84423074E-02
   1.99999996E-02  -9.08219218E-02
   5.49999997E-02 -0.112803265
   9.00000036E-02 -0.128653631
  0.125000000     -0.130910873
  0.159999996     -0.111847982
  0.194999993      -6.57385588E-02
  0.230000004       8.62187706E-03
  0.264999986      0.105944276
  0.300000012      0.213864520
  0.335000008      0.314382374
  0.370000005      0.387363791
  0.405000001      0.415351391
  0.439999998      0.388338119
  0.474999994      0.306977332
  0.509999990      0.183037579
  0.545000017       3.68059762E-02
  0.579999983     -0.107745729
  0.615000010     -0.228469759
  0.649999976     -0.309530586
  0.685000002     -0.343681961
  0.720000029     -0.332131177
  0.754999995     -0.282708794
  0.790000021     -0.207406357
  0.824999988     -0.120115094
  0.860000014      -3.48507129E-02
  0.894999981       3.58050689E-02
  0.930000007       8.24121684E-02
  0.964999974      0.100462683
   1.00000000       9.16482955E-02
   1.03499997       6.37639090E-02
   1.07000005       2.86984388E-02
   1.10500002      -1.19393959E-03
   1.13999999      -1.71097163E-02
   1.17499995      -1.65680815E-02
   1.21000004      -3.68644320E-03
   1.24500000       1.32457297E-02
   1.27999997       2.57972851E-02
   1.31500006       2.91343220E-02
   1.35000002       2.37534847E-02
   1.38499999       1.44845881E-02
   1.41999996       7.38985185E-03
   1.45500004       6.27117371E-03
   1.49000001       1.06398016E-02
   1.52499998       1.61446165E-02
   1.55999994       1.71603728E-02
   1.59500003       1.01180580E-02
   1.63000000      -4.24499949E-03
