 -0.959999979       0.00000000
 -0.925000012      -4.87893703E-21
 -0.889999986      -3.44184757E-14
 -0.855000019      -6.41573220E-13
 -0.819999993       9.58976930E-13
 -0.785000026       1.56434837E-12
 -0.750000000       2.26497662E-12
 -0.714999974      -3.95314198E-11
 -0.680000007      -3.82207460E-11
 -0.644999981       3.87483830E-11
 -0.610000014       1.19111887E-10
 -0.574999988      -8.38083353E-11
 -0.540000021       8.99030780E-11
 -0.504999995       8.43373288E-11
 -0.469999999      -2.09463127E-10
 -0.435000002       2.47335619E-09
 -0.400000006       1.76106818E-09
 -0.365000010      -1.19497185E-08
 -0.330000013      -4.30509031E-11
 -0.294999987       2.26575221E-08
 -0.259999990      -1.06709273E-08
 -0.224999994      -2.89282571E-08
 -0.189999998       3.82685386E-08
 -0.155000001       3.37231825E-08
 -0.119999997      -1.10601249E-07
  -8.50000009E-02  -2.89851023E-08
  -5.00000007E-02   2.03125296E-07
  -1.49999997E-02   4.81307971E-08
   1.99999996E-02  -1.91539414E-07
   5.49999997E-02  -1.25072859E-07
   9.00000036E-02  -3.06076586E-08
  0.125000000       1.96644137E-07
  0.159999996       1.88335903E-07
  0.194999993      -2.24855029E-07
  0.230000004      -2.23713172E-07
  0.264999986       2.49107245E-07
  0.300000012       2.99313172E-07
  0.335000008      -1.27721123E-07
  0.370000005      -5.72724389E-07
  0.405000001      -3.78086838E-07
  0.439999998       5.49779372E-07
  0.474999994       7.24728864E-07
  0.509999990       8.37912992E-08
  0.545000017      -2.69090137E-08
  0.579999983       3.88649937E-07
  0.615000010      -4.08513358E-07
  0.649999976      -1.07179926E-06
  0.685000002       1.85395066E-07
  0.720000029       2.03808938E-07
  0.754999995      -1.09128143E-06
  0.790000021      -1.24802938E-07
  0.824999988       1.07412200E-06
  0.860000014       2.23665054E-07
  0.894999981       2.29684773E-07
  0.930000007       8.72632256E-07
  0.964999974      -6.16971079E-08
   1.00000000      -1.21549317E-06
   1.03499997      -8.25490588E-07
   1.07000005      -4.80420468E-08
   1.10500002       7.86316321E-07
   1.13999999       1.73056458E-06
   1.17499995       8.98652161E-07
   1.21000004      -8.03811588E-07
   1.24500000      -1.20309642E-06
   1.27999997      -7.65705408E-07
   1.31500006      -3.99476448E-07
   1.35000002       8.04017759E-07
   1.38499999       1.10853898E-06
   1.41999996      -1.33216236E-06
   1.45500004      -1.93509049E-06
   1.49000001       1.14521004E-06
   1.52499998       1.71231284E-06
   1.55999994      -6.34560763E-07
   1.59500003      -4.38157571E-07
   1.63000000       6.69780547E-07
