 -0.800000012       0.00000000
 -0.788999975       0.00000000
 -0.777999997       0.00000000
 -0.767000020       2.12605302E-26
 -0.755999982       3.60051372E-18
 -0.745000005       3.05350282E-17
 -0.734000027      -2.29307304E-16
 -0.722999990      -3.08976364E-16
 -0.712000012      -1.22526662E-15
 -0.700999975       1.55711623E-15
 -0.689999998       1.12787657E-15
 -0.679000020       2.41819987E-15
 -0.667999983      -1.63403625E-15
 -0.657000005       1.02577901E-14
 -0.646000028       1.48908087E-14
 -0.634999990       3.30011511E-15
 -0.624000013      -1.88330153E-14
 -0.612999976      -9.05457129E-15
 -0.601999998       3.06811224E-14
 -0.591000021      -1.54750904E-14
 -0.579999983      -5.90119858E-14
 -0.569000006       5.09682323E-14
 -0.558000028       1.18087791E-13
 -0.546999991       1.33636541E-14
 -0.536000013       5.40529603E-14
 -0.524999976       4.02468349E-14
 -0.513999999      -1.87238002E-13
 -0.503000021      -9.07025309E-14
 -0.492000014       2.45979262E-13
 -0.481000006       1.28475459E-15
 -0.469999999       5.99903048E-13
 -0.458999991       3.26287147E-13
 -0.448000014      -2.49607583E-12
 -0.437000006      -8.90040320E-13
 -0.425999999       3.60462138E-12
 -0.414999992       1.38548060E-12
 -0.404000014      -4.54296079E-13
 -0.393000007      -5.95257134E-13
 -0.381999999      -5.66485140E-12
 -0.370999992      -3.70320875E-12
 -0.360000014       7.09919016E-12
 -0.349000007       5.17236861E-13
 -0.338000000      -8.04445746E-12
 -0.326999992       1.06487354E-11
 -0.316000015       1.90254930E-11
 -0.305000007      -7.76848551E-12
 -0.294000000      -1.81118644E-11
 -0.282999992      -1.39860736E-12
 -0.272000015      -1.21575423E-11
 -0.261000007      -3.73355236E-11
 -0.250000000       5.64587786E-11
 -0.238999993       1.05454312E-10
 -0.228000000      -2.86144129E-11
 -0.216999993      -2.79066020E-10
 -0.206000000      -4.24555391E-11
 -0.194999993       3.46195211E-10
 -0.184000000       6.99501915E-11
 -0.172999993      -2.04043490E-10
 -0.162000000       1.55002303E-10
 -0.150999993       2.19568849E-10
 -0.140000001      -7.87126697E-10
 -0.128999993      -7.84134535E-10
 -0.118000001       1.26074451E-09
 -0.107000001       1.53381441E-09
  -9.60000008E-02  -1.89544588E-10
  -8.50000009E-02  -2.28576691E-09
  -7.40000010E-02   3.14065329E-10
  -6.30000010E-02   2.71850276E-09
  -5.20000011E-02  -2.30275821E-09
  -4.10000011E-02  -4.18973567E-09
  -2.99999993E-02   4.54325289E-09
  -1.89999994E-02   6.18923401E-09
  -8.00000038E-03  -4.91852381E-09
   3.00000003E-03  -9.42716660E-09
   1.40000004E-02  -8.32272140E-10
   2.50000004E-02   2.64575228E-09
   3.59999985E-02  -9.46189481E-12
   4.69999984E-02   3.62465880E-09
   5.79999983E-02   9.66314495E-09
   6.89999983E-02   4.70208628E-09
   7.99999982E-02  -2.65911937E-09
   9.09999982E-02  -2.11836970E-09
  0.101999998       9.13361498E-10
  0.112999998      -4.45413129E-09
  0.123999998      -7.99429767E-09
  0.135000005       1.12662535E-09
  0.145999998       3.97687216E-09
  0.157000005      -4.55125937E-09
  0.167999998      -1.03336051E-09
  0.179000005       1.54856519E-08
  0.189999998       1.51317678E-08
  0.201000005      -1.43357273E-08
  0.211999997      -2.33169324E-08
  0.223000005       2.96152969E-09
  0.233999997       1.41234597E-08
  0.245000005      -7.61835928E-09
  0.256000012      -1.09012470E-08
  0.266999990       1.08543228E-08
  0.277999997       6.36012176E-09
  0.289000005       2.25004460E-09
  0.300000012       5.52740609E-09
  0.310999990      -1.45485597E-08
  0.321999997       5.21499244E-09
  0.333000004       3.63358907E-08
  0.344000012       8.05467337E-09
  0.354999989      -1.50715778E-08
  0.365999997       2.13492495E-08
  0.377000004       2.84866726E-08
  0.388000011      -1.80847408E-08
  0.398999989      -3.23898952E-08
  0.409999996      -7.53273444E-09
  0.421000004      -8.83668072E-09
  0.432000011      -2.02604280E-08
  0.442999989      -6.69385614E-09
  0.453999996       1.53284834E-08
  0.465000004       1.38957423E-08
  0.476000011       5.53920598E-09
  0.486999989       1.51653934E-09
  0.497999996      -5.47424506E-09
  0.509000003      -1.01535957E-09
  0.519999981       3.09284793E-08
  0.531000018       2.70659886E-08
  0.541999996      -3.30135812E-08
  0.552999973      -2.25437304E-08
  0.564000010       2.17905285E-08
  0.574999988      -9.12183840E-09
  0.586000025      -6.15572944E-08
  0.597000003       1.25181820E-08
  0.607999980       5.52953416E-08
  0.619000018       1.68874763E-08
  0.629999995       3.97543065E-09
  0.640999973       1.79738553E-08
  0.652000010       1.28742998E-08
  0.662999988      -2.61606758E-09
  0.674000025      -1.59469913E-08
  0.685000002      -3.39484103E-08
  0.695999980       4.24101039E-08
  0.707000017       1.19147010E-07
  0.717999995       2.73569274E-08
  0.728999972      -3.99717379E-08
  0.740000010       1.81863733E-08
  0.750999987      -2.52587284E-08
  0.762000024      -1.24918756E-07
  0.773000002      -2.86745721E-08
  0.783999979       1.01507894E-07
  0.795000017       1.59379745E-08
  0.805999994      -9.87271633E-08
  0.816999972      -3.54997809E-08
  0.828000009       3.94377011E-08
  0.838999987       6.36674002E-09
  0.850000024      -2.28638815E-08
  0.861000001      -2.56578470E-09
  0.871999979       1.77780723E-09
  0.883000016      -2.64528470E-08
  0.893999994      -4.04488461E-08
  0.904999971      -7.87060284E-09
  0.916000009       5.52342421E-08
  0.926999986       6.13271851E-08
  0.938000023      -1.30730635E-08
  0.949000001      -8.94802881E-08
  0.959999979      -7.43826618E-08
  0.971000016       1.58624172E-08
  0.981999993       8.45034478E-08
  0.992999971       8.27966460E-08
   1.00399995       6.59188757E-08
   1.01499999       5.60650157E-08
   1.02600002       1.04192779E-08
   1.03699994      -3.91569763E-08
   1.04799998      -3.56985161E-08
   1.05900002      -3.06291064E-08
   1.07000005      -4.80808069E-08
   1.08099997      -3.58747911E-08
   1.09200001      -5.46528245E-09
   1.10300004       2.08990745E-08
   1.11399996       7.13116322E-08
   1.12500000       9.00486725E-08
   1.13600004       2.68571529E-08
   1.14699996      -2.04673629E-08
   1.15799999      -1.89596214E-08
   1.16900003      -4.62356020E-08
   1.17999995      -6.76977763E-08
   1.19099998      -3.01321599E-08
   1.20200002      -1.21263044E-08
   1.21300006      -4.17963513E-08
   1.22399998      -4.73098147E-08
   1.23500001      -1.60104747E-08
   1.24600005       1.97628367E-08
   1.25699997       2.98369045E-08
   1.26800001       1.41714765E-10
   1.27900004       7.48510942E-09
   1.28999996       8.38973335E-08
   1.30100000       8.57941487E-08
   1.31200004      -1.91140170E-08
   1.32299995      -5.05600362E-08
   1.33399999       3.73776654E-09
   1.34500003      -2.02057642E-08
   1.35599995      -8.30535143E-08
   1.36699998      -3.52765710E-08
   1.37800002       5.69552014E-08
   1.38900006       3.91957222E-08
