 -0.959999979       0.00000000
 -0.925000012       0.00000000
 -0.889999986      -1.09310555E-07
 -0.855000019      -1.50195569E-06
 -0.819999993      -4.31900526E-06
 -0.785000026      -8.17966520E-06
 -0.750000000      -1.73402113E-05
 -0.714999974      -4.01346006E-05
 -0.680000007      -8.54631871E-05
 -0.644999981      -1.68707367E-04
 -0.610000014      -3.19931336E-04
 -0.574999988      -5.83027839E-04
 -0.540000021      -1.01184251E-03
 -0.504999995      -1.66479044E-03
 -0.469999999      -2.58832518E-03
 -0.435000002      -3.79075599E-03
 -0.400000006      -5.21321734E-03
 -0.365000010      -6.70004543E-03
 -0.330000013      -7.98899774E-03
 -0.294999987      -8.76127835E-03
 -0.259999990      -8.77471548E-03
 -0.224999994      -8.07169918E-03
 -0.189999998      -7.22346967E-03
 -0.155000001      -7.52116460E-03
 -0.119999997      -1.09702963E-02
  -8.50000009E-02  -1.99475959E-02
  -5.00000007E-02  -3.64533029E-02
  -1.49999997E-02  -6.10294640E-02
   1.99999996E-02  -9.16094258E-02
   5.49999997E-02 -0.122750975
   9.00000036E-02 -0.145763397
  0.125000000     -0.150088400
  0.159999996     -0.125932932
  0.194999993      -6.76357821E-02
  0.230000004       2.32435986E-02
  0.264999986      0.136330977
  0.300000012      0.253295213
  0.335000008      0.351405233
  0.370000005      0.409056902
  0.405000001      0.411665112
  0.439999998      0.355979681
  0.474999994      0.251305670
  0.509999990      0.117143437
  0.545000017      -2.19883136E-02
  0.579999983     -0.142819658
  0.615000010     -0.228684977
  0.649999976     -0.272460788
  0.685000002     -0.276542574
  0.720000029     -0.250318050
  0.754999995     -0.206296206
  0.790000021     -0.156268612
  0.824999988     -0.108632647
  0.860000014      -6.74627721E-02
  0.894999981      -3.32786255E-02
  0.930000007      -4.87993332E-03
  0.964999974       1.87213030E-02
   1.00000000       3.71884033E-02
   1.03499997       4.90322262E-02
   1.07000005       5.28538041E-02
   1.10500002       4.88425232E-02
   1.13999999       3.95333990E-02
   1.17499995       2.92199533E-02
   1.21000004       2.21968237E-02
   1.24500000       2.07304489E-02
   1.27999997       2.38993056E-02
   1.31500006       2.80295853E-02
   1.35000002       2.85831727E-02
   1.38499999       2.25344673E-02
   1.41999996       9.98754054E-03
   1.45500004      -5.80045953E-03
   1.49000001      -1.99566465E-02
   1.52499998      -2.82377787E-02
   1.55999994      -2.88168825E-02
   1.59500003      -2.27828808E-02
   1.63000000      -1.32756168E-02
