 -0.800000012       0.00000000
 -0.788999975       0.00000000
 -0.777999997       0.00000000
 -0.767000020      -8.52484756E-26
 -0.755999982      -3.48688448E-23
 -0.745000005      -7.64440459E-16
 -0.734000027       1.05161961E-14
 -0.722999990      -5.61501190E-14
 -0.712000012      -1.64371826E-13
 -0.700999975       1.16720370E-12
 -0.689999998      -2.53540852E-12
 -0.679000020      -1.11342034E-12
 -0.667999983       1.49993178E-11
 -0.657000005      -1.96449072E-11
 -0.646000028      -3.07189725E-11
 -0.634999990       1.06629004E-10
 -0.624000013      -1.38203459E-11
 -0.612999976      -2.99421515E-10
 -0.601999998       3.37137984E-10
 -0.591000021       3.10077575E-10
 -0.579999983      -8.82949269E-10
 -0.569000006       1.49390486E-10
 -0.558000028       1.45169909E-09
 -0.546999991      -1.28647404E-09
 -0.536000013      -1.77559956E-09
 -0.524999976       3.14860160E-09
 -0.513999999       1.48918400E-09
 -0.503000021      -4.57586369E-09
 -0.492000014      -1.85950877E-09
 -0.481000006       4.64930627E-09
 -0.469999999       7.11368253E-09
 -0.458999991      -6.61405020E-09
 -0.448000014      -2.13713687E-08
 -0.437000006       1.99804404E-08
 -0.425999999       4.18089741E-08
 -0.414999992      -5.44372014E-08
 -0.404000014      -5.56565460E-08
 -0.393000007       1.06330162E-07
 -0.381999999       4.80987303E-08
 -0.370999992      -1.44048670E-07
 -0.360000014      -2.18485248E-08
 -0.349000007       1.12016565E-07
 -0.338000000       2.32823911E-08
 -0.326999992      -5.31691891E-09
 -0.316000015      -1.39411370E-07
 -0.305000007      -2.12432489E-08
 -0.294000000       4.46975918E-07
 -0.282999992      -2.86017553E-07
 -0.272000015      -9.27521057E-07
 -0.261000007       9.39458403E-07
 -0.250000000       1.33587173E-06
 -0.238999993      -1.46760794E-06
 -0.228000000      -1.30268324E-06
 -0.216999993       1.13564886E-06
 -0.206000000       1.07960898E-06
 -0.194999993       6.26296810E-07
 -0.184000000      -1.65198844E-06
 -0.172999993      -4.12365944E-06
 -0.162000000       3.60197510E-06
 -0.150999993       8.88951945E-06
 -0.140000001      -5.34123137E-06
 -0.128999993      -1.30511353E-05
 -0.118000001       4.37442122E-06
 -0.107000001       1.32115747E-05
  -9.60000008E-02  -9.08856407E-07
  -8.50000009E-02  -7.97826306E-06
  -7.40000010E-02  -6.56003522E-07
  -6.30000010E-02   7.71330406E-07
  -5.20000011E-02  -1.50157611E-08
  -4.10000011E-02   5.89964293E-06
  -2.99999993E-02   4.55684699E-07
  -1.89999994E-02  -1.70315907E-05
  -8.00000038E-03  -6.84738188E-06
   3.00000003E-03   3.21878651E-05
   1.40000004E-02   1.70375879E-05
   2.50000004E-02  -4.03451013E-05
   3.59999985E-02  -1.65809051E-05
   4.69999984E-02   4.64786899E-05
   5.79999983E-02  -5.34730179E-06
   6.89999983E-02  -6.19161292E-05
   7.99999982E-02   2.41944126E-05
   9.09999982E-02   9.26431676E-05
  0.101999998      -9.93555841E-06
  0.112999998      -1.00370242E-04
  0.123999998      -1.49104580E-05
  0.135000005       6.64557519E-05
  0.145999998       1.71224165E-05
  0.157000005      -3.43223910E-05
  0.167999998       2.06288441E-05
  0.179000005      -6.42090390E-06
  0.189999998      -9.02337852E-05
  0.201000005       4.18192358E-05
  0.211999997       1.72097265E-04
  0.223000005      -8.58652784E-05
  0.233999997      -2.54121347E-04
  0.245000005       1.31360546E-04
  0.256000012       3.22674052E-04
  0.266999990      -1.47411614E-04
  0.277999997      -3.01827240E-04
  0.289000005       1.67242644E-04
  0.300000012       2.06609911E-04
  0.310999990      -2.09680758E-04
  0.321999997      -6.38504207E-05
  0.333000004       2.94996804E-04
  0.344000012      -9.32212133E-05
  0.354999989      -4.66767844E-04
  0.365999997       1.58207200E-04
  0.377000004       6.23697706E-04
  0.388000011      -1.08773798E-04
  0.398999989      -6.65924279E-04
  0.409999996       1.54682148E-05
  0.421000004       5.97257749E-04
  0.432000011      -7.57142925E-06
  0.442999989      -4.69405437E-04
  0.453999996       7.32405533E-05
  0.465000004       4.87618905E-04
  0.476000011      -1.12534781E-05
  0.486999989      -7.09516054E-04
  0.497999996      -2.03948905E-04
  0.509000003       9.80127021E-04
  0.519999981       3.44119268E-04
  0.531000018      -1.03902060E-03
  0.541999996      -5.48201613E-04
  0.552999973       1.01241295E-03
  0.564000010       5.36949374E-04
  0.574999988      -8.31323909E-04
  0.586000025      -1.27502281E-05
  0.597000003       7.33899185E-04
  0.607999980      -4.70353698E-04
  0.619000018      -1.12530147E-03
  0.629999995       5.21804148E-04
  0.640999973       1.37876836E-03
  0.652000010      -3.01610999E-04
  0.662999988      -1.40130403E-03
  0.674000025       1.95081429E-05
  0.685000002       1.14266155E-03
  0.695999980       5.74388483E-04
  0.707000017      -4.81986033E-04
  0.717999995      -4.26382088E-04
  0.728999972      -5.35298488E-04
  0.740000010      -7.09194574E-04
  0.750999987       6.21374580E-04
  0.762000024       1.77405251E-03
  0.773000002       4.90156235E-04
  0.783999979      -1.86553644E-03
  0.795000017      -1.40207727E-03
  0.805999994       1.09712034E-03
  0.816999972       1.60563248E-03
  0.828000009      -5.07383258E-04
  0.838999987      -1.49458123E-03
  0.850000024       4.71566076E-04
  0.861000001       1.47689704E-03
  0.871999979      -6.04313973E-04
  0.883000016      -1.20148668E-03
  0.893999994       5.13892854E-04
  0.904999971       4.42430581E-04
  0.916000009      -8.94648139E-04
  0.926999986       2.03259187E-04
  0.938000023       1.62281259E-03
  0.949000001       2.76861741E-04
  0.959999979      -1.43447972E-03
  0.971000016      -1.25947595E-03
  0.981999993       1.64806006E-05
  0.992999971       1.41408597E-03
   1.00399995       1.70359632E-03
   1.01499999      -2.39813162E-04
   1.02600002      -2.05946737E-03
   1.03699994      -1.28941052E-03
   1.04799998       1.45488648E-05
   1.05900002       1.37692888E-03
   1.07000005       2.24175467E-03
   1.08099997       3.81577876E-04
   1.09200001      -2.68832711E-03
   1.10300004      -1.86235830E-03
   1.11399996       1.46731350E-03
   1.12500000       1.82199606E-03
   1.13600004      -7.85575685E-05
   1.14699996      -8.61657201E-04
   1.15799999      -5.62184665E-04
   1.16900003       5.50669356E-05
   1.17999995       5.16464759E-04
   1.19099998       3.31279996E-04
   1.20200002      -1.48953710E-04
   1.21300006      -1.80560368E-04
   1.22399998      -2.06364348E-04
   1.23500001      -2.69618555E-04
   1.24600005       2.24349991E-04
   1.25699997       3.95408890E-04
   1.26800001      -1.39502430E-04
   1.27900004      -1.65779638E-04
   1.28999996       1.55132846E-04
   1.30100000      -2.11505059E-04
   1.31200004      -9.30442257E-05
   1.32299995       8.36196996E-04
   1.33399999       1.94584398E-04
   1.34500003      -1.47075043E-03
   1.35599995      -6.96034927E-04
   1.36699998       1.34156714E-03
   1.37800002       9.45221691E-04
   1.38900006      -3.98093951E-04
