 -0.959999979       0.00000000
 -0.925000012       2.07972288E-08
 -0.889999986       2.60027207E-07
 -0.855000019       3.92678146E-07
 -0.819999993       5.60405226E-07
 -0.785000026       1.85385079E-06
 -0.750000000       4.07468951E-06
 -0.714999974       8.79776690E-06
 -0.680000007       1.76370540E-05
 -0.644999981       2.66887055E-05
 -0.610000014       4.27174818E-05
 -0.574999988       8.38398846E-05
 -0.540000021       1.41435085E-04
 -0.504999995       1.94079330E-04
 -0.469999999       2.57096312E-04
 -0.435000002       3.38238868E-04
 -0.400000006       3.95981740E-04
 -0.365000010       4.27596533E-04
 -0.330000013       5.17058594E-04
 -0.294999987       8.08208773E-04
 -0.259999990       1.64004951E-03
 -0.224999994       3.75056383E-03
 -0.189999998       8.29119794E-03
 -0.155000001       1.67934559E-02
 -0.119999997       3.11227385E-02
  -8.50000009E-02   5.30298874E-02
  -5.00000007E-02   8.32647905E-02
  -1.49999997E-02  0.120628200
   1.99999996E-02  0.161065251
   5.49999997E-02  0.196999103
   9.00000036E-02  0.217621699
  0.125000000      0.210543633
  0.159999996      0.164486840
  0.194999993       7.25796074E-02
  0.230000004      -6.44200742E-02
  0.264999986     -0.236208618
  0.300000012     -0.423270673
  0.335000008     -0.599419653
  0.370000005     -0.736019909
  0.405000001     -0.807095468
  0.439999998     -0.794053435
  0.474999994     -0.688918352
  0.509999990     -0.495789796
  0.545000017     -0.230598748
  0.579999983       8.07528570E-02
  0.615000010      0.405482829
  0.649999976      0.707659304
  0.685000002      0.952213883
  0.720000029       1.10898089
  0.754999995       1.15642333
  0.790000021       1.08478332
  0.824999988      0.898441553
  0.860000014      0.617087543
  0.894999981      0.274968415
  0.930000007      -8.26501250E-02
  0.964999974     -0.406160116
   1.00000000     -0.650669515
   1.03499997     -0.785497963
   1.07000005     -0.801315129
   1.10500002     -0.712120295
   1.13999999     -0.550749421
   1.17499995     -0.359153122
   1.21000004     -0.176788822
   1.24500000      -3.11504751E-02
   1.27999997       6.64248317E-02
   1.31500006      0.118874565
   1.35000002      0.137406260
   1.38499999      0.134817332
   1.41999996      0.121127695
   1.45500004      0.102665119
   1.49000001       8.36297348E-02
   1.52499998       6.79583326E-02
   1.55999994       5.95901012E-02
   1.59500003       6.07380643E-02
   1.63000000       6.95421919E-02
