 -0.959999979       0.00000000
 -0.925000012       8.15253006E-05
 -0.889999986       7.98146706E-04
 -0.855000019      -1.07127090E-03
 -0.819999993      -1.02346716E-03
 -0.785000026       3.70873883E-03
 -0.750000000       1.95249997E-03
 -0.714999974      -3.33813741E-03
 -0.680000007       6.50131493E-04
 -0.644999981       2.08304124E-03
 -0.610000014      -8.09214823E-03
 -0.574999988      -1.78718325E-02
 -0.540000021      -3.39064896E-02
 -0.504999995      -6.76873326E-02
 -0.469999999     -0.105255567
 -0.435000002     -0.146011204
 -0.400000006     -0.200820565
 -0.365000010     -0.250437468
 -0.330000013     -0.288149148
 -0.294999987     -0.353059500
 -0.259999990     -0.487959117
 -0.224999994     -0.749559581
 -0.189999998      -1.22619939
 -0.155000001      -1.94638312
 -0.119999997      -2.79560256
  -8.50000009E-02  -3.50080824
  -5.00000007E-02  -3.60033035
  -1.49999997E-02  -2.49478412
   1.99999996E-02  0.325124353
   5.49999997E-02   5.00487614
   9.00000036E-02   11.0964222
  0.125000000       17.4042053
  0.159999996       22.0787945
  0.194999993       23.0620537
  0.230000004       18.7444630
  0.264999986       8.65129089
  0.300000012      -6.04276276
  0.335000008      -22.4787388
  0.370000005      -36.7296486
  0.405000001      -44.8986664
  0.439999998      -44.3652954
  0.474999994      -34.7583733
  0.509999990      -18.1974220
  0.545000017       1.37135649
  0.579999983       19.4511662
  0.615000010       32.3781395
  0.649999976       38.2934036
  0.685000002       37.3078842
  0.720000029       30.9155827
  0.754999995       21.1266117
  0.790000021       9.78676319
  0.824999988      -1.65458882
  0.860000014      -11.9253807
  0.894999981      -19.6315727
  0.930000007      -23.3114929
  0.964999974      -21.9305344
   1.00000000      -15.5673399
   1.03499997      -5.86211586
   1.07000005       4.22293377
   1.10500002       11.4094706
   1.13999999       13.4346218
   1.17499995       10.0734720
   1.21000004       3.30656028
   1.24500000      -3.57601595
   1.27999997      -7.52205420
   1.31500006      -7.11663294
   1.35000002      -3.17392659
   1.38499999       1.77482486
   1.41999996       4.87841415
   1.45500004       4.47943401
   1.49000001      0.927500129
   1.52499998      -3.66453981
   1.55999994      -6.57801580
   1.59500003      -5.97611618
   1.63000000      -1.89828360
