 -0.800000012       0.00000000
 -0.788999975       0.00000000
 -0.777999997       0.00000000
 -0.767000020      -4.35662982E-23
 -0.755999982       1.75423038E-16
 -0.745000005      -4.43409127E-15
 -0.734000027       4.19719516E-16
 -0.722999990       2.01358061E-14
 -0.712000012      -8.10100278E-15
 -0.700999975       1.69189478E-13
 -0.689999998       2.03394064E-13
 -0.679000020      -6.59487439E-13
 -0.667999983       6.78579480E-13
 -0.657000005       1.24543832E-12
 -0.646000028      -2.46751512E-12
 -0.634999990      -1.81779049E-12
 -0.624000013       2.36480128E-12
 -0.612999976       4.16393780E-13
 -0.601999998      -1.00689673E-13
 -0.591000021       8.69849592E-12
 -0.579999983      -2.18958120E-12
 -0.569000006      -1.41810782E-11
 -0.558000028       8.38634370E-12
 -0.546999991       7.83833155E-12
 -0.536000013      -2.47239972E-11
 -0.524999976      -1.13544612E-12
 -0.513999999       2.73929334E-11
 -0.503000021      -3.41338277E-11
 -0.492000014      -1.29687684E-11
 -0.481000006       1.20926741E-10
 -0.469999999      -2.77569287E-11
 -0.458999991      -2.23569427E-10
 -0.448000014       8.69444378E-11
 -0.437000006       1.95173683E-10
 -0.425999999      -1.53981564E-10
 -0.414999992       1.33369774E-10
 -0.404000014       1.23772340E-10
 -0.393000007      -5.03778241E-10
 -0.381999999      -1.85260540E-11
 -0.370999992       1.96860070E-10
 -0.360000014      -7.29005523E-10
 -0.349000007       1.60836966E-09
 -0.338000000       2.24486540E-09
 -0.326999992      -5.17488896E-09
 -0.316000015      -2.30256147E-09
 -0.305000007       9.89625182E-09
 -0.294000000      -9.35028055E-10
 -0.282999992      -1.41853338E-08
 -0.272000015       4.51580195E-09
 -0.261000007       1.71570846E-08
 -0.250000000      -6.99011826E-09
 -0.238999993      -1.07133076E-08
 -0.228000000       9.80693571E-09
 -0.216999993      -1.56944751E-08
 -0.206000000       2.23529706E-09
 -0.194999993       4.68178420E-08
 -0.184000000      -3.40759421E-08
 -0.172999993      -4.58457841E-08
 -0.162000000       7.85808822E-08
 -0.150999993      -2.24616081E-09
 -0.140000001      -1.35351812E-07
 -0.128999993       4.42754349E-08
 -0.118000001       1.54206759E-07
 -0.107000001      -1.11387301E-07
  -9.60000008E-02  -1.34529401E-07
  -8.50000009E-02   3.12284811E-07
  -7.40000010E-02   1.66331475E-07
  -6.30000010E-02  -5.58826741E-07
  -5.20000011E-02  -2.11596330E-07
  -4.10000011E-02   8.30539079E-07
  -2.99999993E-02   1.74584443E-07
  -1.89999994E-02  -8.97384268E-07
  -8.00000038E-03   3.50570417E-08
   3.00000003E-03   4.91764922E-07
   1.40000004E-02  -4.47799295E-07
   2.50000004E-02   1.50085199E-07
   3.59999985E-02   1.26804139E-06
   4.69999984E-02  -2.09399204E-07
   5.79999983E-02  -1.50872677E-06
   6.89999983E-02  -3.93383999E-07
   7.99999982E-02  -7.37131316E-08
   9.09999982E-02   8.29509048E-08
  0.101999998       1.52692837E-06
  0.112999998       2.41457229E-07
  0.123999998      -1.13911096E-06
  0.135000005       1.55188604E-06
  0.145999998       7.99953511E-07
  0.157000005      -3.32344212E-06
  0.167999998      -1.33138735E-06
  0.179000005       2.84950761E-06
  0.189999998       1.25792042E-06
  0.201000005      -1.06710070E-06
  0.211999997       1.72019099E-07
  0.223000005       4.25902158E-08
  0.233999997      -9.24631877E-07
  0.245000005       3.19867922E-07
  0.256000012       6.46412701E-08
  0.266999990      -1.09576206E-06
  0.277999997       6.11421740E-07
  0.289000005       1.93043684E-06
  0.300000012       9.25242546E-07
  0.310999990       7.35010985E-07
  0.321999997      -7.56901727E-07
  0.333000004      -2.05694687E-06
  0.344000012      -1.53895917E-06
  0.354999989      -3.09106485E-06
  0.365999997      -1.14666909E-06
  0.377000004       4.62550452E-06
  0.388000011       2.49339996E-06
  0.398999989      -5.14859357E-06
  0.409999996       5.79027699E-07
  0.421000004       8.13847328E-06
  0.432000011      -2.84269777E-06
  0.442999989      -8.53313941E-06
  0.453999996       3.03792126E-06
  0.465000004       6.05768082E-06
  0.476000011      -2.38308212E-06
  0.486999989      -2.20641641E-06
  0.497999996       2.13801559E-06
  0.509000003      -2.64824109E-07
  0.519999981      -1.06866094E-06
  0.531000018       3.08860513E-06
  0.541999996       2.74026638E-06
  0.552999973      -4.04817638E-06
  0.564000010      -6.27832742E-06
  0.574999988       2.45561409E-06
  0.586000025       7.67598794E-06
  0.597000003      -1.68269605E-06
  0.607999980      -6.55295798E-06
  0.619000018       8.01144665E-07
  0.629999995       2.07149628E-06
  0.640999973      -2.82532392E-06
  0.652000010      -5.21131540E-07
  0.662999988       5.01133582E-06
  0.674000025       2.65964900E-06
  0.685000002      -2.41468524E-06
  0.695999980       1.84937039E-06
  0.707000017       6.27356758E-06
  0.717999995      -4.62086928E-06
  0.728999972      -1.75525583E-05
  0.740000010      -6.80100266E-06
  0.750999987       1.58158782E-05
  0.762000024       1.46177690E-05
  0.773000002      -3.36508106E-06
  0.783999979      -4.00904082E-06
  0.795000017       3.80520987E-06
  0.805999994      -7.86719829E-06
  0.816999972      -1.52510438E-05
  0.828000009       7.10675022E-06
  0.838999987       1.97333702E-05
  0.850000024      -2.65024960E-06
  0.861000001      -1.43848711E-05
  0.871999979       2.77396498E-06
  0.883000016       7.34500600E-06
  0.893999994      -3.76395701E-06
  0.904999971       1.05692664E-08
  0.916000009       6.18261174E-06
  0.926999986      -3.76781327E-06
  0.938000023      -8.13287261E-06
  0.949000001       6.18474303E-07
  0.959999979       3.09118900E-06
  0.971000016       1.10004999E-06
  0.981999993       4.64471168E-06
  0.992999971       1.28860995E-06
   1.00399995      -9.77953550E-06
   1.01499999      -6.07544371E-06
   1.02600002       8.37649895E-06
   1.03699994       8.35036462E-06
   1.04799998      -1.71740510E-06
   1.05900002      -1.73239141E-06
   1.07000005       1.36021436E-06
   1.08099997      -4.22379344E-06
   1.09200001      -6.86796875E-06
   1.10300004       3.21515017E-07
   1.11399996       4.82174846E-06
   1.12500000       1.59631509E-06
   1.13600004      -4.21630716E-07
   1.14699996       1.55826797E-06
   1.15799999       2.89140053E-06
   1.16900003       1.24615019E-06
   1.17999995      -1.99955730E-06
   1.19099998      -3.23944687E-06
   1.20200002      -2.31528315E-06
   1.21300006      -2.11709221E-06
   1.22399998       1.42267459E-06
   1.23500001       9.15712280E-06
   1.24600005       6.00661770E-06
   1.25699997      -9.95675236E-06
   1.26800001      -1.25451506E-05
   1.27900004       4.04454067E-06
   1.28999996       9.59364479E-06
   1.30100000      -2.40567124E-06
   1.31200004      -3.92609718E-06
   1.32299995       5.24579718E-06
   1.33399999      -8.14056420E-07
   1.34500003      -1.18586058E-05
   1.35599995      -2.63826024E-07
   1.36699998       1.51905933E-05
   1.37800002       3.64812809E-06
   1.38900006      -1.26119439E-05
