 -0.800000012       0.00000000
 -0.788999975       0.00000000
 -0.777999997       0.00000000
 -0.767000020       0.00000000
 -0.755999982      -2.37337927E-09
 -0.745000005       1.61121889E-08
 -0.734000027      -7.37000505E-08
 -0.722999990       2.05184023E-07
 -0.712000012      -1.98596183E-07
 -0.700999975      -5.40969381E-07
 -0.689999998       1.90790752E-06
 -0.679000020      -1.31481204E-06
 -0.667999983      -4.23616530E-06
 -0.657000005       9.61330079E-06
 -0.646000028       4.30895994E-07
 -0.634999990      -2.46372056E-05
 -0.624000013       1.98063699E-05
 -0.612999976       3.44677646E-05
 -0.601999998      -5.22407536E-05
 -0.591000021      -1.70610965E-05
 -0.579999983       4.59850526E-05
 -0.569000006      -3.78550903E-05
 -0.558000028       1.19770637E-04
 -0.546999991       1.01745711E-04
 -0.536000013      -6.07279770E-04
 -0.524999976      -1.15949617E-04
 -0.513999999       1.49546168E-03
 -0.503000021       5.52593810E-05
 -0.492000014      -2.56109214E-03
 -0.481000006       2.95882382E-05
 -0.469999999       3.10024107E-03
 -0.458999991      -1.42325676E-04
 -0.448000014      -2.10990570E-03
 -0.437000006       6.25518383E-04
 -0.425999999      -8.72457400E-04
 -0.414999992      -2.08544522E-03
 -0.404000014       4.70292009E-03
 -0.393000007       4.36611753E-03
 -0.381999999      -7.01074302E-03
 -0.370999992      -5.74715296E-03
 -0.360000014       6.65856106E-03
 -0.349000007       5.13271522E-03
 -0.338000000      -3.93127697E-03
 -0.326999992      -3.87951802E-03
 -0.316000015      -2.75924127E-03
 -0.305000007      -8.90875992E-04
 -0.294000000       5.72655536E-03
 -0.282999992      -9.17445752E-04
 -0.272000015      -1.41896019E-02
 -0.261000007      -2.67058122E-03
 -0.250000000       1.17145283E-02
 -0.238999993      -7.33563676E-03
 -0.228000000      -2.53063794E-02
 -0.216999993      -1.17429961E-02
 -0.206000000      -3.81628494E-03
 -0.194999993      -1.62597299E-02
 -0.184000000      -2.31142137E-02
 -0.172999993      -3.39164995E-02
 -0.162000000      -5.68440445E-02
 -0.150999993      -5.95479906E-02
 -0.140000001      -5.10258414E-02
 -0.128999993      -7.64484704E-02
 -0.118000001     -0.119339161
 -0.107000001     -0.142637208
  -9.60000008E-02 -0.165325120
  -8.50000009E-02 -0.203131020
  -7.40000010E-02 -0.241556883
  -6.30000010E-02 -0.292642802
  -5.20000011E-02 -0.364689618
  -4.10000011E-02 -0.427235484
  -2.99999993E-02 -0.483397752
  -1.89999994E-02 -0.569605589
  -8.00000038E-03 -0.670606375
   3.00000003E-03 -0.756637633
   1.40000004E-02 -0.847356677
   2.50000004E-02 -0.949338138
   3.59999985E-02  -1.03968942
   4.69999984E-02  -1.13264191
   5.79999983E-02  -1.23782670
   6.89999983E-02  -1.31079257
   7.99999982E-02  -1.34053016
   9.09999982E-02  -1.36755562
  0.101999998      -1.38266730
  0.112999998      -1.34525228
  0.123999998      -1.26058817
  0.135000005      -1.13309026
  0.145999998     -0.939972401
  0.157000005     -0.690799475
  0.167999998     -0.400914818
  0.179000005      -4.30229679E-02
  0.189999998      0.391501755
  0.201000005      0.871603608
  0.211999997       1.39363897
  0.223000005       1.96768403
  0.233999997       2.56751013
  0.245000005       3.17252445
  0.256000012       3.78826022
  0.266999990       4.39474201
  0.277999997       4.95203018
  0.289000005       5.44839716
  0.300000012       5.88085365
  0.310999990       6.22407389
  0.321999997       6.45730305
  0.333000004       6.57903433
  0.344000012       6.57815599
  0.354999989       6.43521452
  0.365999997       6.15584517
  0.377000004       5.75876999
  0.388000011       5.24239111
  0.398999989       4.60786390
  0.409999996       3.88267708
  0.421000004       3.08361745
  0.432000011       2.20953512
  0.442999989       1.28569818
  0.453999996      0.346947163
  0.465000004     -0.602879345
  0.476000011      -1.55877185
  0.486999989      -2.49940825
  0.497999996      -3.42472458
  0.509000003      -4.33878851
  0.519999981      -5.22187519
  0.531000018      -6.07301998
  0.541999996      -6.91600609
  0.552999973      -7.74715233
  0.564000010      -8.55008602
  0.574999988      -9.33087444
  0.586000025      -10.0895042
  0.597000003      -10.8059521
  0.607999980      -11.4663754
  0.619000018      -12.0546331
  0.629999995      -12.5370331
  0.640999973      -12.8788157
  0.652000010      -13.0486307
  0.662999988      -13.0133610
  0.674000025      -12.7442913
  0.685000002      -12.2114849
  0.695999980      -11.3824797
  0.707000017      -10.2411337
  0.717999995      -8.78889561
  0.728999972      -7.03503942
  0.740000010      -5.00300407
  0.750999987      -2.72953367
  0.762000024     -0.258247226
  0.773000002       2.35223603
  0.783999979       5.02756405
  0.795000017       7.68762827
  0.805999994       10.2464895
  0.816999972       12.6208057
  0.828000009       14.7365541
  0.838999987       16.5206585
  0.850000024       17.9071312
  0.861000001       18.8496666
  0.871999979       19.3162479
  0.883000016       19.2877426
  0.893999994       18.7719250
  0.904999971       17.7967281
  0.916000009       16.3976192
  0.926999986       14.6230316
  0.938000023       12.5358963
  0.949000001       10.2159424
  0.959999979       7.75698042
  0.971000016       5.24025297
  0.981999993       2.73179269
  0.992999971      0.310551584
   1.00399995      -1.94576526
   1.01499999      -3.98623180
   1.02600002      -5.76264334
   1.03699994      -7.22961855
   1.04799998      -8.37813091
   1.05900002      -9.21169376
   1.07000005      -9.72118187
   1.08099997      -9.92148876
   1.09200001      -9.85103226
   1.10300004      -9.53500938
   1.11399996      -9.00694847
   1.12500000      -8.32082939
   1.13600004      -7.51102638
   1.14699996      -6.60430717
   1.15799999      -5.65394449
   1.16900003      -4.70370579
   1.17999995      -3.77060294
   1.19099998      -2.88297868
   1.20200002      -2.06847930
   1.21300006      -1.32610238
   1.22399998     -0.661382735
   1.23500001      -9.88675058E-02
   1.24600005      0.359838396
   1.25699997      0.731288254
   1.26800001       1.01822329
   1.27900004       1.22422206
   1.28999996       1.36415267
   1.30100000       1.44422305
   1.31200004       1.46942246
   1.32299995       1.45746553
   1.33399999       1.41738117
   1.34500003       1.34560919
   1.35599995       1.25269556
   1.36699998       1.15498257
   1.37800002       1.05149090
   1.38900006      0.942198813
