 -0.800000012       0.00000000
 -0.788999975       0.00000000
 -0.777999997       0.00000000
 -0.767000020       0.00000000
 -0.755999982      -4.00826178E-10
 -0.745000005      -9.21744014E-10
 -0.734000027       9.91880800E-09
 -0.722999990      -7.32168459E-09
 -0.712000012      -4.33052030E-08
 -0.700999975       5.38538529E-08
 -0.689999998       9.37158404E-08
 -0.679000020      -1.74544965E-07
 -0.667999983      -9.48421217E-08
 -0.657000005       3.94308927E-07
 -0.646000028      -5.36257616E-08
 -0.634999990      -6.99512213E-07
 -0.624000013       3.50492911E-07
 -0.612999976       9.31916020E-07
 -0.601999998      -6.28951739E-07
 -0.591000021      -6.98927806E-07
 -0.579999983       8.10526501E-07
 -0.569000006      -2.78670967E-07
 -0.558000028      -1.09185373E-06
 -0.546999991       1.48757965E-06
 -0.536000013       1.41583462E-06
 -0.524999976      -1.82170072E-06
 -0.513999999      -9.66338462E-07
 -0.503000021       1.11204167E-06
 -0.492000014      -4.47760669E-07
 -0.481000006      -2.81602652E-08
 -0.469999999       1.56638680E-06
 -0.458999991      -1.44991157E-06
 -0.448000014      -1.56295403E-06
 -0.437000006       3.47433456E-06
 -0.425999999       1.36380095E-06
 -0.414999992      -4.69159750E-06
 -0.404000014      -3.57443059E-06
 -0.393000007      -3.43546048E-06
 -0.381999999      -6.45691216E-06
 -0.370999992      -1.62890854E-06
 -0.360000014      -1.38621672E-07
 -0.349000007      -1.29595101E-05
 -0.338000000      -1.94755103E-05
 -0.326999992      -1.46211896E-05
 -0.316000015      -2.06352379E-05
 -0.305000007      -3.39053404E-05
 -0.294000000      -4.21848999E-05
 -0.282999992      -5.99183113E-05
 -0.272000015      -8.55200633E-05
 -0.261000007      -1.00918754E-04
 -0.250000000      -1.22794270E-04
 -0.238999993      -1.67933904E-04
 -0.228000000      -2.19214533E-04
 -0.216999993      -2.78975989E-04
 -0.206000000      -3.63317755E-04
 -0.194999993      -4.54538647E-04
 -0.184000000      -5.52651007E-04
 -0.172999993      -6.95934461E-04
 -0.162000000      -8.80644249E-04
 -0.150999993      -1.07769773E-03
 -0.140000001      -1.30849727E-03
 -0.128999993      -1.59442786E-03
 -0.118000001      -1.91695255E-03
 -0.107000001      -2.28441088E-03
  -9.60000008E-02  -2.72103958E-03
  -8.50000009E-02  -3.20852106E-03
  -7.40000010E-02  -3.73884803E-03
  -6.30000010E-02  -4.34075482E-03
  -5.20000011E-02  -5.00969961E-03
  -4.10000011E-02  -5.72249526E-03
  -2.99999993E-02  -6.49266923E-03
  -1.89999994E-02  -7.32116168E-03
  -8.00000038E-03  -8.17829184E-03
   3.00000003E-03  -9.06807464E-03
   1.40000004E-02  -1.00042699E-02
   2.50000004E-02  -1.09556476E-02
   3.59999985E-02  -1.19003197E-02
   4.69999984E-02  -1.28550772E-02
   5.79999983E-02  -1.38183031E-02
   6.89999983E-02  -1.47786699E-02
   7.99999982E-02  -1.57594979E-02
   9.09999982E-02  -1.67838186E-02
  0.101999998      -1.78593099E-02
  0.112999998      -1.90305468E-02
  0.123999998      -2.03749482E-02
  0.135000005      -2.19610222E-02
  0.145999998      -2.38688048E-02
  0.157000005      -2.62096431E-02
  0.167999998      -2.91003156E-02
  0.179000005      -3.26687843E-02
  0.189999998      -3.70738730E-02
  0.201000005      -4.24709916E-02
  0.211999997      -4.89897914E-02
  0.223000005      -5.67660853E-02
  0.233999997      -6.59372434E-02
  0.245000005      -7.65930712E-02
  0.256000012      -8.87736529E-02
  0.266999990     -0.102487944
  0.277999997     -0.117681518
  0.289000005     -0.134211570
  0.300000012     -0.151869386
  0.310999990     -0.170371637
  0.321999997     -0.189322427
  0.333000004     -0.208227888
  0.344000012     -0.226526961
  0.354999989     -0.243579254
  0.365999997     -0.258670211
  0.377000004     -0.271049529
  0.388000011     -0.279939175
  0.398999989     -0.284546882
  0.409999996     -0.284125954
  0.421000004     -0.278007656
  0.432000011     -0.265603006
  0.442999989     -0.246453121
  0.453999996     -0.220279679
  0.465000004     -0.186981097
  0.476000011     -0.146653026
  0.486999989      -9.96381715E-02
  0.497999996      -4.65150550E-02
  0.509000003       1.19320927E-02
  0.519999981       7.46953040E-02
  0.531000018      0.140550509
  0.541999996      0.208116576
  0.552999973      0.275892407
  0.564000010      0.342285812
  0.574999988      0.405678868
  0.586000025      0.464486182
  0.597000003      0.517192185
  0.607999980      0.562410355
  0.619000018      0.598945320
  0.629999995      0.625827670
  0.640999973      0.642347872
  0.652000010      0.648088634
  0.662999988      0.642931640
  0.674000025      0.627057016
  0.685000002      0.600944877
  0.695999980      0.565352380
  0.707000017      0.521275759
  0.717999995      0.469916373
  0.728999972      0.412638545
  0.740000010      0.350913823
  0.750999987      0.286268324
  0.762000024      0.220237672
  0.773000002      0.154317647
  0.783999979       8.99107978E-02
  0.795000017       2.82843783E-02
  0.805999994      -2.94529852E-02
  0.816999972      -8.23694021E-02
  0.828000009     -0.129731342
  0.838999987     -0.171014965
  0.850000024     -0.205900550
  0.861000001     -0.234263659
  0.871999979     -0.256163627
  0.883000016     -0.271819472
  0.893999994     -0.281580985
  0.904999971     -0.285908699
  0.916000009     -0.285355777
  0.926999986     -0.280536920
  0.938000023     -0.272089928
  0.949000001     -0.260653377
  0.959999979     -0.246862546
  0.971000016     -0.231332585
  0.981999993     -0.214628011
  0.992999971     -0.197253928
   1.00399995     -0.179662123
   1.01499999     -0.162238657
   1.02600002     -0.145293847
   1.03699994     -0.129079312
   1.04799998     -0.113795921
   1.05900002      -9.95806158E-02
   1.07000005      -8.65115151E-02
   1.08099997      -7.46267438E-02
   1.09200001      -6.39287531E-02
   1.10300004      -5.43908328E-02
   1.11399996      -4.59685177E-02
   1.12500000      -3.85938846E-02
   1.13600004      -3.21784467E-02
   1.14699996      -2.66381223E-02
   1.15799999      -2.18927544E-02
   1.16900003      -1.78491678E-02
   1.17999995      -1.44213727E-02
   1.19099998      -1.15459254E-02
   1.20200002      -9.15013533E-03
   1.21300006      -7.14973314E-03
   1.22399998      -5.49260713E-03
   1.23500001      -4.14914638E-03
   1.24600005      -3.06735118E-03
   1.25699997      -2.19394010E-03
   1.26800001      -1.50765281E-03
   1.27900004      -9.86343133E-04
   1.28999996      -5.90269046E-04
   1.30100000      -2.98994826E-04
   1.31200004      -1.07311113E-04
   1.32299995       9.47626268E-06
   1.33399999       7.65461300E-05
   1.34500003       9.76092924E-05
   1.35599995       8.08638069E-05
   1.36699998       4.12380614E-05
   1.37800002      -2.15236778E-05
   1.38900006      -1.02085753E-04
