 -0.959999979       0.00000000
 -0.925000012       0.00000000
 -0.889999986      -3.59232867E-23
 -0.855000019       1.13378473E-15
 -0.819999993       4.76312071E-14
 -0.785000026      -6.54741425E-14
 -0.750000000      -1.03612994E-13
 -0.714999974      -1.41790510E-13
 -0.680000007       1.29230144E-12
 -0.644999981      -9.20230580E-13
 -0.610000014       5.62131331E-12
 -0.574999988       1.59922509E-12
 -0.540000021       1.10649890E-12
 -0.504999995       2.40475452E-11
 -0.469999999      -2.93768065E-11
 -0.435000002       8.05641318E-11
 -0.400000006      -2.15837237E-10
 -0.365000010      -9.73325240E-11
 -0.330000013       3.87975929E-10
 -0.294999987       1.93330948E-10
 -0.259999990      -9.17918519E-10
 -0.224999994      -1.14565568E-09
 -0.189999998       1.49937118E-09
 -0.155000001       2.50061993E-09
 -0.119999997      -2.38476017E-09
  -8.50000009E-02   5.70457848E-10
  -5.00000007E-02   1.82153870E-09
  -1.49999997E-02  -6.76290979E-09
   1.99999996E-02  -7.24624893E-09
   5.49999997E-02   4.85279861E-09
   9.00000036E-02   9.31037825E-09
  0.125000000       6.08423179E-09
  0.159999996      -2.79549783E-09
  0.194999993      -1.51172852E-08
  0.230000004      -1.08055271E-08
  0.264999986       1.88167277E-08
  0.300000012       1.11023839E-08
  0.335000008      -2.95415248E-08
  0.370000005      -7.94970667E-09
  0.405000001       4.39469332E-08
  0.439999998       8.31271141E-09
  0.474999994      -4.40283578E-08
  0.509999990      -1.30214515E-08
  0.545000017       1.56733986E-08
  0.579999983      -5.93966210E-09
  0.615000010       8.42533687E-09
  0.649999976       2.43527367E-08
  0.685000002       2.29320740E-08
  0.720000029      -2.09819806E-08
  0.754999995       3.27372929E-09
  0.790000021       5.36283657E-08
  0.824999988       2.66882445E-08
  0.860000014      -5.43892789E-08
  0.894999981      -3.31816388E-08
  0.930000007       3.37531159E-09
  0.964999974      -4.51933886E-08
   1.00000000      -5.93229394E-08
   1.03499997      -2.50621905E-08
   1.07000005      -4.08811331E-08
   1.10500002      -9.43101508E-09
   1.13999999       7.08127885E-08
   1.17499995       3.18393134E-08
   1.21000004      -4.17854835E-08
   1.24500000       3.50261331E-08
   1.27999997       5.45772210E-08
   1.31500006      -6.77272567E-08
   1.35000002      -5.42544250E-08
   1.38499999       2.64761475E-08
   1.41999996      -2.35598030E-08
   1.45500004      -2.70934617E-08
   1.49000001       5.49123449E-08
   1.52499998       1.92167739E-08
   1.55999994      -4.21123438E-08
   1.59500003       1.20560459E-08
   1.63000000       3.18317781E-08
