 -0.959999979       0.00000000
 -0.925000012       2.07973443E-08
 -0.889999986       2.60028486E-07
 -0.855000019       3.92677777E-07
 -0.819999993       5.60402725E-07
 -0.785000026       1.85385784E-06
 -0.750000000       4.07470452E-06
 -0.714999974       8.79776871E-06
 -0.680000007       1.76370395E-05
 -0.644999981       2.66886509E-05
 -0.610000014       4.27175619E-05
 -0.574999988       8.38399574E-05
 -0.540000021       1.41434837E-04
 -0.504999995       1.94079694E-04
 -0.469999999       2.57096835E-04
 -0.435000002       3.38236394E-04
 -0.400000006       3.95981362E-04
 -0.365000010       4.27603110E-04
 -0.330000013       5.17059292E-04
 -0.294999987       8.08200915E-04
 -0.259999990       1.64004345E-03
 -0.224999994       3.75055661E-03
 -0.189999998       8.29118025E-03
 -0.155000001       1.67934466E-02
 -0.119999997       3.11227422E-02
  -8.50000009E-02   5.30298427E-02
  -5.00000007E-02   8.32647458E-02
  -1.49999997E-02  0.120628178
   1.99999996E-02  0.161065087
   5.49999997E-02  0.196998879
   9.00000036E-02  0.217621654
  0.125000000      0.210543498
  0.159999996      0.164486691
  0.194999993       7.25798756E-02
  0.230000004      -6.44197240E-02
  0.264999986     -0.236208647
  0.300000012     -0.423270404
  0.335000008     -0.599418581
  0.370000005     -0.736018956
  0.405000001     -0.807095408
  0.439999998     -0.794053435
  0.474999994     -0.688917816
  0.509999990     -0.495789707
  0.545000017     -0.230599597
  0.579999983       8.07519257E-02
  0.615000010      0.405481786
  0.649999976      0.707657874
  0.685000002      0.952212572
  0.720000029       1.10898042
  0.754999995       1.15642381
  0.790000021       1.08478343
  0.824999988      0.898440540
  0.860000014      0.617087722
  0.894999981      0.274970323
  0.930000007      -8.26488063E-02
  0.964999974     -0.406159699
   1.00000000     -0.650668502
   1.03499997     -0.785496950
   1.07000005     -0.801315546
   1.10500002     -0.712120831
   1.13999999     -0.550749063
   1.17499995     -0.359153122
   1.21000004     -0.176789388
   1.24500000      -3.11507061E-02
   1.27999997       6.64240867E-02
   1.31500006      0.118873209
   1.35000002      0.137405932
   1.38499999      0.134817407
   1.41999996      0.121127069
   1.45500004      0.102665231
   1.49000001       8.36310312E-02
   1.52499998       6.79589957E-02
   1.55999994       5.95896468E-02
   1.59500003       6.07378632E-02
   1.63000000       6.95427507E-02
