 -0.800000012       0.00000000
 -0.788999975       0.00000000
 -0.777999997       0.00000000
 -0.767000020       0.00000000
 -0.755999982       0.00000000
 -0.745000005      -2.87178891E-13
 -0.734000027       1.37521732E-12
 -0.722999990      -5.88009459E-12
 -0.712000012       1.16918706E-11
 -0.700999975       5.23367721E-12
 -0.689999998      -6.66818128E-11
 -0.679000020       9.22595472E-11
 -0.667999983       9.21086818E-11
 -0.657000005      -4.20618346E-10
 -0.646000028       2.29864044E-10
 -0.634999990       9.32485755E-10
 -0.624000013      -1.34599454E-09
 -0.612999976      -1.22790733E-09
 -0.601999998       3.06078163E-09
 -0.591000021       1.02834319E-09
 -0.579999983      -3.06849346E-09
 -0.569000006      -1.60114033E-09
 -0.558000028      -4.71424366E-09
 -0.546999991       6.66489308E-09
 -0.536000013       3.03552419E-08
 -0.524999976      -1.94352339E-08
 -0.513999999      -8.32555926E-08
 -0.503000021       3.38748798E-08
 -0.492000014       1.57691701E-07
 -0.481000006      -2.83835764E-08
 -0.469999999      -2.10878625E-07
 -0.458999991      -1.82445206E-08
 -0.448000014       1.57167975E-07
 -0.437000006       7.72817756E-08
 -0.425999999       7.30837044E-08
 -0.414999992      -3.66814881E-08
 -0.404000014      -3.98786256E-07
 -0.393000007      -1.91837799E-07
 -0.381999999       5.43411829E-07
 -0.370999992       4.30361325E-07
 -0.360000014      -3.78095422E-07
 -0.349000007      -3.80865345E-07
 -0.338000000       2.37422341E-07
 -0.326999992       3.80023693E-07
 -0.316000015       5.32067261E-08
 -0.305000007      -6.07473169E-07
 -0.294000000      -1.37595248E-06
 -0.282999992      -1.45153194E-06
 -0.272000015      -1.63813047E-06
 -0.261000007      -3.54164285E-06
 -0.250000000      -5.76825596E-06
 -0.238999993      -6.57745204E-06
 -0.228000000      -8.27434724E-06
 -0.216999993      -1.30332774E-05
 -0.206000000      -1.92129755E-05
 -0.194999993      -2.58544587E-05
 -0.184000000      -3.44635155E-05
 -0.172999993      -4.58694121E-05
 -0.162000000      -6.13791126E-05
 -0.150999993      -8.37669140E-05
 -0.140000001      -1.13360053E-04
 -0.128999993      -1.49127256E-04
 -0.118000001      -1.94144697E-04
 -0.107000001      -2.53602309E-04
  -9.60000008E-02  -3.30319221E-04
  -8.50000009E-02  -4.27040213E-04
  -7.40000010E-02  -5.48339682E-04
  -6.30000010E-02  -6.98867720E-04
  -5.20000011E-02  -8.84805981E-04
  -4.10000011E-02  -1.11487170E-03
  -2.99999993E-02  -1.39663275E-03
  -1.89999994E-02  -1.73688540E-03
  -8.00000038E-03  -2.14606011E-03
   3.00000003E-03  -2.63637654E-03
   1.40000004E-02  -3.21824569E-03
   2.50000004E-02  -3.90264764E-03
   3.59999985E-02  -4.70191939E-03
   4.69999984E-02  -5.62699139E-03
   5.79999983E-02  -6.68911310E-03
   6.89999983E-02  -7.90101569E-03
   7.99999982E-02  -9.27152392E-03
   9.09999982E-02  -1.08042350E-02
  0.101999998      -1.25024170E-02
  0.112999998      -1.43679054E-02
  0.123999998      -1.63961705E-02
  0.135000005      -1.85769610E-02
  0.145999998      -2.08948553E-02
  0.157000005      -2.33264901E-02
  0.167999998      -2.58417148E-02
  0.179000005      -2.84054447E-02
  0.189999998      -3.09743825E-02
  0.201000005      -3.34959477E-02
  0.211999997      -3.59120555E-02
  0.223000005      -3.81595232E-02
  0.233999997      -4.01689075E-02
  0.245000005      -4.18676212E-02
  0.256000012      -4.31824587E-02
  0.266999990      -4.40389030E-02
  0.277999997      -4.43635881E-02
  0.289000005      -4.40890938E-02
  0.300000012      -4.31553535E-02
  0.310999990      -4.15100232E-02
  0.321999997      -3.91115658E-02
  0.333000004      -3.59317660E-02
  0.344000012      -3.19559239E-02
  0.354999989      -2.71841325E-02
  0.365999997      -2.16336530E-02
  0.377000004      -1.53383007E-02
  0.388000011      -8.34616926E-03
  0.398999989      -7.19746400E-04
  0.409999996       7.46425660E-03
  0.421000004       1.61181223E-02
  0.432000011       2.51451042E-02
  0.442999989       3.44393924E-02
  0.453999996       4.38892357E-02
  0.465000004       5.33810519E-02
  0.476000011       6.27999306E-02
  0.486999989       7.20302239E-02
  0.497999996       8.09580982E-02
  0.509000003       8.94715562E-02
  0.519999981       9.74600017E-02
  0.531000018      0.104816623
  0.541999996      0.111438423
  0.552999973      0.117223389
  0.564000010      0.122070976
  0.574999988      0.125883996
  0.586000025      0.128567949
  0.597000003      0.130031034
  0.607999980      0.130186573
  0.619000018      0.128954694
  0.629999995      0.126264274
  0.640999973      0.122056909
  0.652000010      0.116291158
  0.662999988      0.108946532
  0.674000025      0.100027300
  0.685000002       8.95659178E-02
  0.695999980       7.76269063E-02
  0.707000017       6.43107593E-02
  0.717999995       4.97555435E-02
  0.728999972       3.41367796E-02
  0.740000010       1.76666137E-02
  0.750999987       5.91050950E-04
  0.762000024      -1.68146677E-02
  0.773000002      -3.42515223E-02
  0.783999979      -5.14037386E-02
  0.795000017      -6.79477081E-02
  0.805999994      -8.35615844E-02
  0.816999972      -9.79356468E-02
  0.828000009     -0.110782474
  0.838999987     -0.121846132
  0.850000024     -0.130910799
  0.861000001     -0.137808770
  0.871999979     -0.142425954
  0.883000016     -0.144705862
  0.893999994     -0.144651964
  0.904999971     -0.142326638
  0.916000009     -0.137847826
  0.926999986     -0.131384924
  0.938000023     -0.123152703
  0.949000001     -0.113403685
  0.959999979     -0.102418512
  0.971000016      -9.04946700E-02
  0.981999993      -7.79367313E-02
  0.992999971      -6.50482550E-02
   1.00399995      -5.21222427E-02
   1.01499999      -3.94317396E-02
   1.02600002      -2.72236187E-02
   1.03699994      -1.57127418E-02
   1.04799998      -5.07659744E-03
   1.05900002       4.54580830E-03
   1.07000005       1.30536379E-02
   1.08099997       2.03852598E-02
   1.09200001       2.65163872E-02
   1.10300004       3.14554758E-02
   1.11399996       3.52407470E-02
   1.12500000       3.79361361E-02
   1.13600004       3.96247320E-02
   1.14699996       4.04045843E-02
   1.15799999       4.03853655E-02
   1.16900003       3.96819897E-02
   1.17999995       3.84094007E-02
   1.19099998       3.66805159E-02
   1.20200002       3.46027985E-02
   1.21300006       3.22748385E-02
   1.22399998       2.97864825E-02
   1.23500001       2.72181146E-02
   1.24600005       2.46377382E-02
   1.25699997       2.21008752E-02
   1.26800001       1.96525380E-02
   1.27900004       1.73274390E-02
   1.28999996       1.51504008E-02
   1.30100000       1.31383426E-02
   1.31200004       1.13010639E-02
   1.32299995       9.64168739E-03
   1.33399999       8.15871824E-03
   1.34500003       6.84721628E-03
   1.35599995       5.69844153E-03
   1.36699998       4.70118551E-03
   1.37800002       3.84373683E-03
   1.38900006       3.11361696E-03
