 -0.959999979       0.00000000
 -0.925000012       8.92331082E-05
 -0.889999986       1.04762020E-03
 -0.855000019       1.16277940E-03
 -0.819999993       8.51925404E-04
 -0.785000026       4.32643620E-03
 -0.750000000       1.11296726E-02
 -0.714999974       1.83952563E-02
 -0.680000007       3.09515223E-02
 -0.644999981       5.54937497E-02
 -0.610000014       9.13244113E-02
 -0.574999988      0.135280430
 -0.540000021      0.182965368
 -0.504999995      0.220886916
 -0.469999999      0.227671012
 -0.435000002      0.179617211
 -0.400000006       5.25453538E-02
 -0.365000010     -0.161536723
 -0.330000013     -0.421763033
 -0.294999987     -0.619472623
 -0.259999990     -0.584867716
 -0.224999994     -0.118521370
 -0.189999998      0.935449302
 -0.155000001       2.57258844
 -0.119999997       4.51277971
  -8.50000009E-02   6.14565182
  -5.00000007E-02   6.58814716
  -1.49999997E-02   4.90103960
   1.99999996E-02  0.458430588
   5.49999997E-02  -6.63602304
   9.00000036E-02  -15.2550316
  0.125000000      -23.2493668
  0.159999996      -27.8707390
  0.194999993      -26.5977497
  0.230000004      -18.1289921
  0.264999986      -3.16479349
  0.300000012       15.3911953
  0.335000008       33.0272522
  0.370000005       44.9334755
  0.405000001       47.5866241
  0.439999998       39.9906616
  0.474999994       24.0719509
  0.509999990       4.05675554
  0.545000017      -14.9390488
  0.579999983      -28.5436344
  0.615000010      -34.3587914
  0.649999976      -32.4033813
  0.685000002      -24.7398281
  0.720000029      -14.5284176
  0.754999995      -4.90260553
  0.790000021       1.95238650
  0.824999988       5.27840757
  0.860000014       5.70255089
  0.894999981       4.72282505
  0.930000007       3.91634870
  0.964999974       4.19114685
   1.00000000       5.40673637
   1.03499997       6.54875708
   1.07000005       6.39416742
   1.10500002       4.32478714
   1.13999999      0.819880009
   1.17499995      -2.68597460
   1.21000004      -4.53616190
   1.24500000      -3.78388834
   1.27999997     -0.784819067
   1.31500006       2.91977644
   1.35000002       5.38963175
   1.38499999       5.30465364
   1.41999996       2.64575624
   1.45500004      -1.33209598
   1.49000001      -4.79593420
   1.52499998      -6.28733253
   1.55999994      -5.39844084
   1.59500003      -2.83536363
   1.63000000       8.89571831E-02
