 -0.959999979       0.00000000
 -0.925000012       2.54274613E-21
 -0.889999986      -1.42005921E-11
 -0.855000019       2.92324949E-11
 -0.819999993       1.09001211E-10
 -0.785000026       4.50813761E-11
 -0.750000000       1.34261313E-09
 -0.714999974      -4.49674714E-10
 -0.680000007      -7.36575023E-09
 -0.644999981       8.65940653E-09
 -0.610000014       7.12073900E-10
 -0.574999988      -1.85810869E-08
 -0.540000021      -2.28533601E-08
 -0.504999995       3.11424522E-08
 -0.469999999       1.24613763E-07
 -0.435000002       3.41614537E-09
 -0.400000006       4.92866832E-08
 -0.365000010      -3.87192159E-07
 -0.330000013       8.36016852E-07
 -0.294999987      -1.75434934E-06
 -0.259999990       4.09619048E-07
 -0.224999994       1.79729534E-06
 -0.189999998      -4.29006559E-06
 -0.155000001       1.89307332E-06
 -0.119999997       6.19995444E-06
  -8.50000009E-02   2.23672259E-06
  -5.00000007E-02  -1.03800176E-05
  -1.49999997E-02   7.27349857E-07
   1.99999996E-02   2.07220936E-07
   5.49999997E-02  -4.65332823E-06
   9.00000036E-02   7.10012091E-06
  0.125000000       7.59733166E-06
  0.159999996      -5.46811225E-06
  0.194999993      -4.99508133E-06
  0.230000004       3.60104241E-06
  0.264999986       2.04271032E-06
  0.300000012      -1.59970368E-05
  0.335000008       1.76011599E-05
  0.370000005       1.10443789E-05
  0.405000001      -1.08542345E-05
  0.439999998      -1.15849698E-05
  0.474999994       1.61503267E-05
  0.509999990      -1.16644260E-05
  0.545000017      -1.34335169E-05
  0.579999983       2.37644854E-05
  0.615000010       2.17319598E-06
  0.649999976      -5.17203625E-05
  0.685000002       2.26060183E-05
  0.720000029       5.25671603E-05
  0.754999995      -5.49477263E-05
  0.790000021       1.69986504E-06
  0.824999988       6.15028548E-05
  0.860000014      -1.43567058E-05
  0.894999981      -4.71389758E-05
  0.930000007       1.75538844E-05
  0.964999974      -8.52958055E-06
   1.00000000      -4.24679774E-06
   1.03499997       4.38555653E-05
   1.07000005      -1.02870408E-05
   1.10500002      -4.46894301E-05
   1.13999999       3.40458973E-05
   1.17499995       1.57090999E-05
   1.21000004      -6.16872640E-05
   1.24500000       2.22785002E-06
   1.27999997       7.02883990E-05
   1.31500006       1.33028379E-06
   1.35000002      -5.05481476E-05
   1.38499999      -3.88380749E-06
   1.41999996       2.83407026E-05
   1.45500004       9.58135828E-08
   1.49000001      -1.76104604E-05
   1.52499998       5.60899798E-06
   1.55999994       1.75162422E-05
   1.59500003      -1.43164107E-05
   1.63000000      -1.68595943E-05
