 -0.800000012       0.00000000
 -0.788999975       0.00000000
 -0.777999997       0.00000000
 -0.767000020       0.00000000
 -0.755999982      -4.00826178E-10
 -0.745000005      -9.21744292E-10
 -0.734000027       9.91880889E-09
 -0.722999990      -7.32168060E-09
 -0.712000012      -4.33052101E-08
 -0.700999975       5.38538423E-08
 -0.689999998       9.37158617E-08
 -0.679000020      -1.74544965E-07
 -0.667999983      -9.48421643E-08
 -0.657000005       3.94308898E-07
 -0.646000028      -5.36256444E-08
 -0.634999990      -6.99512384E-07
 -0.624000013       3.50492883E-07
 -0.612999976       9.31916134E-07
 -0.601999998      -6.28952080E-07
 -0.591000021      -6.98928716E-07
 -0.579999983       8.10525933E-07
 -0.569000006      -2.78670001E-07
 -0.558000028      -1.09185248E-06
 -0.546999991       1.48757886E-06
 -0.536000013       1.41583348E-06
 -0.524999976      -1.82169970E-06
 -0.513999999      -9.66337097E-07
 -0.503000021       1.11203974E-06
 -0.492000014      -4.47764535E-07
 -0.481000006      -2.81576984E-08
 -0.469999999       1.56639567E-06
 -0.458999991      -1.44990986E-06
 -0.448000014      -1.56296312E-06
 -0.437000006       3.47432888E-06
 -0.425999999       1.36380163E-06
 -0.414999992      -4.69159295E-06
 -0.404000014      -3.57441036E-06
 -0.393000007      -3.43547367E-06
 -0.381999999      -6.45697219E-06
 -0.370999992      -1.62884032E-06
 -0.360000014      -1.38467726E-07
 -0.349000007      -1.29596756E-05
 -0.338000000      -1.94757667E-05
 -0.326999992      -1.46209622E-05
 -0.316000015      -2.06350851E-05
 -0.305000007      -3.39055987E-05
 -0.294000000      -4.21845798E-05
 -0.282999992      -5.99177984E-05
 -0.272000015      -8.55209073E-05
 -0.261000007      -1.00919635E-04
 -0.250000000      -1.22793543E-04
 -0.238999993      -1.67933191E-04
 -0.228000000      -2.19214591E-04
 -0.216999993      -2.78975902E-04
 -0.206000000      -3.63318453E-04
 -0.194999993      -4.54539142E-04
 -0.184000000      -5.52648620E-04
 -0.172999993      -6.95932831E-04
 -0.162000000      -8.80648789E-04
 -0.150999993      -1.07770157E-03
 -0.140000001      -1.30849215E-03
 -0.128999993      -1.59442227E-03
 -0.118000001      -1.91695499E-03
 -0.107000001      -2.28441576E-03
  -9.60000008E-02  -2.72104144E-03
  -8.50000009E-02  -3.20852152E-03
  -7.40000010E-02  -3.73884663E-03
  -6.30000010E-02  -4.34074784E-03
  -5.20000011E-02  -5.00969449E-03
  -4.10000011E-02  -5.72250551E-03
  -2.99999993E-02  -6.49267761E-03
  -1.89999994E-02  -7.32115703E-03
  -8.00000038E-03  -8.17828719E-03
   3.00000003E-03  -9.06807743E-03
   1.40000004E-02  -1.00042727E-02
   2.50000004E-02  -1.09556448E-02
   3.59999985E-02  -1.19003011E-02
   4.69999984E-02  -1.28550502E-02
   5.79999983E-02  -1.38182966E-02
   6.89999983E-02  -1.47786951E-02
   7.99999982E-02  -1.57595314E-02
   9.09999982E-02  -1.67838298E-02
  0.101999998      -1.78592969E-02
  0.112999998      -1.90305244E-02
  0.123999998      -2.03749463E-02
  0.135000005      -2.19610557E-02
  0.145999998      -2.38688160E-02
  0.157000005      -2.62096003E-02
  0.167999998      -2.91002952E-02
  0.179000005      -3.26688364E-02
  0.189999998      -3.70739363E-02
  0.201000005      -4.24710102E-02
  0.211999997      -4.89898063E-02
  0.223000005      -5.67660779E-02
  0.233999997      -6.59371987E-02
  0.245000005      -7.65930489E-02
  0.256000012      -8.87736827E-02
  0.266999990     -0.102487989
  0.277999997     -0.117681481
  0.289000005     -0.134211496
  0.300000012     -0.151869312
  0.310999990     -0.170371622
  0.321999997     -0.189322531
  0.333000004     -0.208228022
  0.344000012     -0.226527020
  0.354999989     -0.243579209
  0.365999997     -0.258670121
  0.377000004     -0.271049470
  0.388000011     -0.279939234
  0.398999989     -0.284547031
  0.409999996     -0.284126133
  0.421000004     -0.278007627
  0.432000011     -0.265602708
  0.442999989     -0.246452898
  0.453999996     -0.220279798
  0.465000004     -0.186981261
  0.476000011     -0.146652997
  0.486999989      -9.96380746E-02
  0.497999996      -4.65149805E-02
  0.509000003       1.19320322E-02
  0.519999981       7.46950135E-02
  0.531000018      0.140550271
  0.541999996      0.208116710
  0.552999973      0.275892705
  0.564000010      0.342285872
  0.574999988      0.405678779
  0.586000025      0.464486122
  0.597000003      0.517191947
  0.607999980      0.562410295
  0.619000018      0.598945796
  0.629999995      0.625828028
  0.640999973      0.642347813
  0.652000010      0.648088396
  0.662999988      0.642931342
  0.674000025      0.627056897
  0.685000002      0.600944936
  0.695999980      0.565352619
  0.707000017      0.521276057
  0.717999995      0.469916403
  0.728999972      0.412638366
  0.740000010      0.350913614
  0.750999987      0.286268294
  0.762000024      0.220237732
  0.773000002      0.154317543
  0.783999979       8.99104699E-02
  0.795000017       2.82841213E-02
  0.805999994      -2.94530038E-02
  0.816999972      -8.23692977E-02
  0.828000009     -0.129731089
  0.838999987     -0.171014622
  0.850000024     -0.205900505
  0.861000001     -0.234263912
  0.871999979     -0.256163687
  0.883000016     -0.271819204
  0.893999994     -0.281580865
  0.904999971     -0.285908878
  0.916000009     -0.285355926
  0.926999986     -0.280536830
  0.938000023     -0.272089720
  0.949000001     -0.260653347
  0.959999979     -0.246862799
  0.971000016     -0.231332868
  0.981999993     -0.214628011
  0.992999971     -0.197253719
   1.00399995     -0.179661974
   1.01499999     -0.162238538
   1.02600002     -0.145293713
   1.03699994     -0.129079446
   1.04799998     -0.113796242
   1.05900002      -9.95805860E-02
   1.07000005      -8.65111202E-02
   1.08099997      -7.46265128E-02
   1.09200001      -6.39288053E-02
   1.10300004      -5.43909222E-02
   1.11399996      -4.59686592E-02
   1.12500000      -3.85941826E-02
   1.13600004      -3.21787708E-02
   1.14699996      -2.66383216E-02
   1.15799999      -2.18927432E-02
   1.16900003      -1.78489685E-02
   1.17999995      -1.44212693E-02
   1.19099998      -1.15460679E-02
   1.20200002      -9.15017817E-03
   1.21300006      -7.14950729E-03
   1.22399998      -5.49245812E-03
   1.23500001      -4.14918968E-03
   1.24600005      -3.06732138E-03
   1.25699997      -2.19385535E-03
   1.26800001      -1.50769460E-03
   1.27900004      -9.86372470E-04
   1.28999996      -5.90153970E-04
   1.30100000      -2.98911327E-04
   1.31200004      -1.07352513E-04
   1.32299995       9.47511853E-06
   1.33399999       7.66781377E-05
   1.34500003       9.77090895E-05
   1.35599995       8.07366159E-05
   1.36699998       4.10348621E-05
   1.37800002      -2.14238480E-05
   1.38900006      -1.01746504E-04
