 -0.959999979       0.00000000
 -0.925000012       2.04762159E-06
 -0.889999986       1.70046260E-05
 -0.855000019       5.45860094E-05
 -0.819999993       8.80490770E-05
 -0.785000026       6.90117304E-05
 -0.750000000       1.54938651E-04
 -0.714999974       6.52923598E-04
 -0.680000007       1.37077807E-03
 -0.644999981       1.82641658E-03
 -0.610000014       2.47583189E-03
 -0.574999988       4.17046854E-03
 -0.540000021       6.29515108E-03
 -0.504999995       7.50285666E-03
 -0.469999999       7.50868069E-03
 -0.435000002       5.91382245E-03
 -0.400000006       1.17762317E-03
 -0.365000010      -7.28917774E-03
 -0.330000013      -1.84435565E-02
 -0.294999987      -3.11622042E-02
 -0.259999990      -4.31238264E-02
 -0.224999994      -4.96001504E-02
 -0.189999998      -4.66755778E-02
 -0.155000001      -3.28548625E-02
 -0.119999997      -5.05005289E-03
  -8.50000009E-02   4.37542833E-02
  -5.00000007E-02  0.122456640
  -1.49999997E-02  0.239258885
   1.99999996E-02  0.392912626
   5.49999997E-02  0.551471770
   9.00000036E-02  0.629855573
  0.125000000      0.484200835
  0.159999996      -6.62100762E-02
  0.194999993      -1.18080890
  0.230000004      -2.90542436
  0.264999986      -5.07618427
  0.300000012      -7.26605034
  0.335000008      -8.81077003
  0.370000005      -8.93233871
  0.405000001      -6.94861126
  0.439999998      -2.51537418
  0.474999994       4.17382765
  0.509999990       12.2950745
  0.545000017       20.4537086
  0.579999983       26.9129696
  0.615000010       29.9551506
  0.649999976       28.2949162
  0.685000002       21.4527340
  0.720000029       9.99284077
  0.754999995      -4.46752596
  0.790000021      -19.5183125
  0.824999988      -32.4378052
  0.860000014      -40.7835579
  0.894999981      -42.9536781
  0.930000007      -38.5661926
  0.964999974      -28.5367107
   1.00000000      -14.8331909
   1.03499997       3.72093660E-03
   1.07000005       13.4311819
   1.10500002       23.4206104
   1.13999999       28.7984753
   1.17499995       29.3492165
   1.21000004       25.7033253
   1.24500000       19.0910473
   1.27999997       11.0413952
   1.31500006       3.07970238
   1.35000002      -3.53686738
   1.38499999      -8.00825119
   1.41999996      -10.0758629
   1.45500004      -9.98664761
   1.49000001      -8.34399509
   1.52499998      -5.88951492
   1.55999994      -3.29363847
   1.59500003      -1.03173840
   1.63000000      0.627433479
