 -0.800000012       0.00000000
 -0.788999975       0.00000000
 -0.777999997      -4.60576217E-07
 -0.767000020       5.79920925E-06
 -0.755999982      -8.85847294E-06
 -0.745000005      -5.43655078E-05
 -0.734000027       1.00753357E-04
 -0.722999990       1.59679010E-04
 -0.712000012      -3.93759605E-04
 -0.700999975      -2.18424771E-04
 -0.689999998       9.29602364E-04
 -0.679000020       9.81522135E-07
 -0.667999983      -1.59216707E-03
 -0.657000005       5.58446336E-04
 -0.646000028       2.02727807E-03
 -0.634999990      -9.64702049E-04
 -0.624000013      -1.43218634E-03
 -0.612999976       4.19335440E-04
 -0.601999998      -1.39838213E-03
 -0.591000021       8.14971339E-04
 -0.579999983       6.47956040E-03
 -0.569000006      -1.32326200E-03
 -0.558000028      -1.14245983E-02
 -0.546999991       3.75289645E-04
 -0.536000013       1.34521825E-02
 -0.524999976       2.00335565E-03
 -0.513999999      -1.15294438E-02
 -0.503000021      -7.27466494E-03
 -0.492000014       2.57440843E-03
 -0.481000006       1.20042963E-02
 -0.469999999       1.38661237E-02
 -0.458999991      -5.53213758E-03
 -0.448000014      -2.24106666E-02
 -0.437000006      -5.01518231E-03
 -0.425999999       2.18449961E-02
 -0.414999992       2.22969577E-02
 -0.404000014       6.09426759E-03
 -0.393000007      -6.35407073E-03
 -0.381999999      -5.56073943E-03
 -0.370999992       1.56515390E-02
 -0.360000014       3.90791669E-02
 -0.349000007       3.62049378E-02
 -0.338000000       2.04781462E-02
 -0.326999992       2.37758905E-02
 -0.316000015       4.88941558E-02
 -0.305000007       8.82266834E-02
 -0.294000000      0.130767733
 -0.282999992      0.147228301
 -0.272000015      0.140184790
 -0.261000007      0.168890774
 -0.250000000      0.257709384
 -0.238999993      0.353935540
 -0.228000000      0.422099113
 -0.216999993      0.489221990
 -0.206000000      0.582683086
 -0.194999993      0.709905267
 -0.184000000      0.876680195
 -0.172999993       1.06385994
 -0.162000000       1.24053133
 -0.150999993       1.42233574
 -0.140000001       1.64783049
 -0.128999993       1.91375160
 -0.118000001       2.18957067
 -0.107000001       2.45758343
  -9.60000008E-02   2.71672654
  -8.50000009E-02   2.97686505
  -7.40000010E-02   3.23568916
  -6.30000010E-02   3.46610427
  -5.20000011E-02   3.64955831
  -4.10000011E-02   3.77638650
  -2.99999993E-02   3.81952786
  -1.89999994E-02   3.76641560
  -8.00000038E-03   3.61684537
   3.00000003E-03   3.32768369
   1.40000004E-02   2.86393332
   2.50000004E-02   2.24974394
   3.59999985E-02   1.47584808
   4.69999984E-02  0.492227852
   5.79999983E-02 -0.688050330
   6.89999983E-02  -2.04343390
   7.99999982E-02  -3.60364604
   9.09999982E-02  -5.33641005
  0.101999998      -7.16926861
  0.112999998      -9.11526966
  0.123999998      -11.1669044
  0.135000005      -13.2139874
  0.145999998      -15.1992474
  0.157000005      -17.1149483
  0.167999998      -18.8576546
  0.179000005      -20.3273106
  0.189999998      -21.5108204
  0.201000005      -22.3385372
  0.211999997      -22.6966839
  0.223000005      -22.5613441
  0.233999997      -21.9148216
  0.245000005      -20.6748466
  0.256000012      -18.8155441
  0.266999990      -16.3690166
  0.277999997      -13.3291054
  0.289000005      -9.70675468
  0.300000012      -5.57561684
  0.310999990     -0.999459028
  0.321999997       3.96696043
  0.333000004       9.22322464
  0.344000012       14.6503344
  0.354999989       20.1277428
  0.365999997       25.5126457
  0.377000004       30.6543560
  0.388000011       35.4167938
  0.398999989       39.6670036
  0.409999996       43.2707367
  0.421000004       46.0918350
  0.432000011       48.0030785
  0.442999989       48.9058990
  0.453999996       48.7279549
  0.465000004       47.4156113
  0.476000011       44.9587288
  0.486999989       41.3866463
  0.497999996       36.7402458
  0.509000003       31.0902023
  0.519999981       24.5655422
  0.531000018       17.3279285
  0.541999996       9.54653931
  0.552999973       1.42376423
  0.564000010      -6.80230427
  0.574999988      -14.8990307
  0.586000025      -22.6501217
  0.597000003      -29.8294411
  0.607999980      -36.2150116
  0.619000018      -41.6305618
  0.629999995      -45.9360466
  0.640999973      -49.0058479
  0.652000010      -50.7588043
  0.662999988      -51.1831284
  0.674000025      -50.3022690
  0.685000002      -48.1716118
  0.695999980      -44.9025726
  0.707000017      -40.6453552
  0.717999995      -35.5608368
  0.728999972      -29.8421764
  0.740000010      -23.7073269
  0.750999987      -17.3612804
  0.762000024      -11.0012789
  0.773000002      -4.82955790
  0.783999979      0.977511048
  0.795000017       6.27577257
  0.805999994       10.9370890
  0.816999972       14.8702021
  0.828000009       18.0356960
  0.838999987       20.4165459
  0.850000024       22.0082016
  0.861000001       22.8406048
  0.871999979       22.9748459
  0.883000016       22.4851532
  0.893999994       21.4611130
  0.904999971       20.0073128
  0.916000009       18.2281742
  0.926999986       16.2159081
  0.938000023       14.0568027
  0.949000001       11.8435354
  0.959999979       9.65996361
  0.971000016       7.56227827
  0.981999993       5.59756947
  0.992999971       3.81414676
   1.00399995       2.23397398
   1.01499999      0.859608293
   1.02600002     -0.288720727
   1.03699994      -1.19969678
   1.04799998      -1.90803778
   1.05900002      -2.44698024
   1.07000005      -2.81660771
   1.08099997      -3.03061104
   1.09200001      -3.12276387
   1.10300004      -3.10913754
   1.11399996      -3.00862861
   1.12500000      -2.86010385
   1.13600004      -2.68111658
   1.14699996      -2.46829629
   1.15799999      -2.23534632
   1.16900003      -1.99919951
   1.17999995      -1.76682472
   1.19099998      -1.55355191
   1.20200002      -1.36362922
   1.21300006      -1.17902410
   1.22399998      -1.00049341
   1.23500001     -0.844368100
   1.24600005     -0.707846165
   1.25699997     -0.590913236
   1.26800001     -0.500782728
   1.27900004     -0.417822063
   1.28999996     -0.328500271
   1.30100000     -0.256333172
   1.31200004     -0.207693711
   1.32299995     -0.163516626
   1.33399999     -0.126989424
   1.34500003      -9.94033366E-02
   1.35599995      -6.35947511E-02
   1.36699998      -3.19234729E-02
   1.37800002      -2.30751392E-02
   1.38900006      -1.51304342E-02
