 -0.800000012       0.00000000
 -0.788999975       0.00000000
 -0.777999997       3.71293427E-20
 -0.767000020       3.16153997E-14
 -0.755999982       3.00346147E-13
 -0.745000005       7.06465160E-13
 -0.734000027      -1.12905366E-12
 -0.722999990       5.65990397E-13
 -0.712000012       6.70977895E-14
 -0.700999975       6.33058804E-14
 -0.689999998       1.00284939E-12
 -0.679000020      -1.02397225E-12
 -0.667999983      -2.43239630E-12
 -0.657000005      -2.49832251E-12
 -0.646000028       4.21396815E-12
 -0.634999990       4.83734710E-12
 -0.624000013      -8.81777897E-12
 -0.612999976       2.13529972E-13
 -0.601999998       1.97320823E-11
 -0.591000021       3.64560951E-11
 -0.579999983      -4.83583174E-11
 -0.569000006      -6.05546429E-12
 -0.558000028      -4.87043739E-11
 -0.546999991      -4.00314087E-11
 -0.536000013       1.50781984E-10
 -0.524999976      -6.91996946E-11
 -0.513999999      -2.54303800E-10
 -0.503000021      -1.33216688E-10
 -0.492000014      -9.54631652E-11
 -0.481000006      -1.92791116E-10
 -0.469999999       5.75274550E-10
 -0.458999991       5.51105050E-10
 -0.448000014      -5.88144144E-10
 -0.437000006      -1.10646747E-09
 -0.425999999       9.94920368E-10
 -0.414999992       1.93931471E-09
 -0.404000014      -1.83492899E-09
 -0.393000007       7.08079761E-10
 -0.381999999      -5.34777944E-10
 -0.370999992      -4.53514160E-09
 -0.360000014       5.06113329E-09
 -0.349000007       4.02830480E-09
 -0.338000000      -6.83893653E-09
 -0.326999992       8.09244050E-09
 -0.316000015       2.02559947E-09
 -0.305000007      -1.31769022E-08
 -0.294000000       1.10156073E-09
 -0.282999992       8.03926881E-09
 -0.272000015      -7.65411201E-09
 -0.261000007      -4.44669468E-10
 -0.250000000       2.38577798E-08
 -0.238999993      -1.34668436E-08
 -0.228000000      -1.63139031E-08
 -0.216999993       1.86209466E-08
 -0.206000000       4.41829062E-09
 -0.194999993       7.24236848E-09
 -0.184000000       4.52894646E-08
 -0.172999993       1.91359231E-08
 -0.162000000      -1.40607268E-08
 -0.150999993      -5.06111490E-08
 -0.140000001      -2.30379236E-08
 -0.128999993       3.27466445E-08
 -0.118000001      -2.13793339E-08
 -0.107000001      -4.09897609E-08
  -9.60000008E-02   4.65990588E-08
  -8.50000009E-02   2.22904184E-08
  -7.40000010E-02  -2.58591530E-08
  -6.30000010E-02   4.05315959E-08
  -5.20000011E-02   4.27140527E-08
  -4.10000011E-02  -1.37384450E-08
  -2.99999993E-02   2.67374283E-08
  -1.89999994E-02   3.07535708E-09
  -8.00000038E-03  -1.15020356E-07
   3.00000003E-03  -1.94117011E-09
   1.40000004E-02   9.56171320E-08
   2.50000004E-02  -4.41224302E-08
   3.59999985E-02   7.04391434E-09
   4.69999984E-02   9.62297051E-08
   5.79999983E-02  -5.87054387E-08
   6.89999983E-02  -1.13766276E-07
   7.99999982E-02   5.99128356E-08
   9.09999982E-02   9.87858613E-08
  0.101999998      -3.41174555E-08
  0.112999998      -1.27290917E-07
  0.123999998      -5.80259609E-08
  0.135000005       1.16321324E-07
  0.145999998      -4.17703134E-08
  0.157000005      -2.04224790E-07
  0.167999998       1.73086107E-07
  0.179000005       3.26334970E-07
  0.189999998      -1.60537041E-07
  0.201000005      -2.10911040E-07
  0.211999997       1.67423153E-07
  0.223000005      -8.74540049E-08
  0.233999997      -2.10858573E-07
  0.245000005       1.92547148E-07
  0.256000012       1.23266148E-07
  0.266999990      -2.04475938E-07
  0.277999997      -4.35055370E-08
  0.289000005       8.67579146E-08
  0.300000012       1.13006156E-08
  0.310999990       1.26763666E-07
  0.321999997       1.13257784E-07
  0.333000004      -7.15412298E-08
  0.344000012       3.00567891E-08
  0.354999989       3.18490856E-09
  0.365999997      -2.21460098E-07
  0.377000004      -1.23149036E-07
  0.388000011       6.69486795E-08
  0.398999989       1.82548945E-08
  0.409999996       1.59060065E-07
  0.421000004       2.41603459E-07
  0.432000011      -5.88431632E-08
  0.442999989      -2.14431807E-07
  0.453999996      -9.12702092E-08
  0.465000004      -6.43092335E-08
  0.476000011      -8.18384862E-08
  0.486999989      -6.13161930E-08
  0.497999996       4.41873134E-08
  0.509000003       2.95960803E-07
  0.519999981       2.12789374E-07
  0.531000018      -1.51169971E-07
  0.541999996      -1.18153409E-07
  0.552999973      -5.36757163E-08
  0.564000010      -3.13079312E-07
  0.574999988      -3.16978905E-08
  0.586000025       4.78271829E-07
  0.597000003       9.14829741E-08
  0.607999980      -3.31226886E-07
  0.619000018       5.59070230E-08
  0.629999995       1.43872185E-07
  0.640999973      -2.73129103E-07
  0.652000010      -1.91021115E-07
  0.662999988       1.83376443E-07
  0.674000025       1.65487265E-07
  0.685000002       8.16472578E-09
  0.695999980       1.62227332E-09
  0.707000017       9.52579526E-08
  0.717999995       1.23341607E-07
  0.728999972      -9.10707527E-08
  0.740000010      -1.96262306E-07
  0.750999987       4.73498361E-08
  0.762000024       4.86413398E-08
  0.773000002      -1.88761703E-07
  0.783999979       1.84620443E-08
  0.795000017       2.62105402E-07
  0.805999994      -3.26915135E-08
  0.816999972      -2.22800651E-07
  0.828000009      -3.86711774E-09
  0.838999987       6.50883862E-08
  0.850000024       5.25022470E-09
  0.861000001       8.69608101E-08
  0.871999979       7.72260194E-08
  0.883000016      -4.93153571E-08
  0.893999994      -5.65420599E-08
  0.904999971      -3.18722329E-08
  0.916000009      -7.17078592E-08
  0.926999986      -1.08688161E-08
  0.938000023       1.51015684E-07
  0.949000001       1.11581357E-07
  0.959999979      -1.34803116E-07
  0.971000016      -1.05910559E-07
  0.981999993       1.68573976E-07
  0.992999971       4.55289388E-08
   1.00399995      -2.40537645E-07
   1.01499999      -1.60632698E-08
   1.02600002       1.64344058E-07
   1.03699994      -1.38717553E-07
   1.04799998      -9.38651041E-08
   1.05900002       2.67084715E-07
   1.07000005       5.17726626E-08
   1.08099997      -2.25019477E-07
   1.09200001       5.94330416E-08
   1.10300004       1.04174205E-07
   1.11399996      -2.05661976E-07
   1.12500000      -3.78798219E-08
   1.13600004       2.65685941E-07
   1.14699996       4.92576113E-08
   1.15799999      -1.66098062E-07
   1.16900003      -4.49419252E-10
   1.17999995       8.23598185E-08
   1.19099998      -7.99496434E-08
   1.20200002      -1.16034002E-07
   1.21300006       7.48233333E-08
   1.22399998       1.16693393E-07
   1.23500001      -1.03025386E-07
   1.24600005      -1.12131850E-07
   1.25699997       1.15014259E-07
   1.26800001       9.38868450E-09
   1.27900004      -2.19812080E-07
   1.28999996      -1.92055989E-08
   1.30100000       1.66339333E-07
   1.31200004      -1.57485580E-08
   1.32299995      -6.68379414E-08
   1.33399999       4.07946388E-08
   1.34500003      -1.94823517E-08
   1.35599995      -3.20413420E-08
   1.36699998       2.84805477E-08
   1.37800002      -3.99813409E-08
   1.38900006       1.62537273E-08
