 -0.959999979       0.00000000
 -0.925000012       0.00000000
 -0.889999986      -1.45581436E-09
 -0.855000019      -1.82019839E-08
 -0.819999993      -2.89432798E-08
 -0.785000026      -5.74302312E-08
 -0.750000000      -1.58713263E-07
 -0.714999974      -3.42659149E-07
 -0.680000007      -7.74557464E-07
 -0.644999981      -1.57725265E-06
 -0.610000014      -2.64276468E-06
 -0.574999988      -4.56748649E-06
 -0.540000021      -8.51155710E-06
 -0.504999995      -1.44679188E-05
 -0.469999999      -2.20971579E-05
 -0.435000002      -3.24647190E-05
 -0.400000006      -4.57737478E-05
 -0.365000010      -6.01833308E-05
 -0.330000013      -7.57058369E-05
 -0.294999987      -9.63777929E-05
 -0.259999990      -1.32280067E-04
 -0.224999994      -2.11180348E-04
 -0.189999998      -3.94819013E-04
 -0.155000001      -7.91563885E-04
 -0.119999997      -1.57036039E-03
  -8.50000009E-02  -2.97015440E-03
  -5.00000007E-02  -5.28244860E-03
  -1.49999997E-02  -8.79868679E-03
   1.99999996E-02  -1.37264188E-02
   5.49999997E-02  -2.00732443E-02
   9.00000036E-02  -2.75163520E-02
  0.125000000      -3.53067629E-02
  0.159999996      -4.22543921E-02
  0.194999993      -4.68208268E-02
  0.230000004      -4.73349802E-02
  0.264999986      -4.23114449E-02
  0.300000012      -3.08003630E-02
  0.335000008      -1.26825273E-02
  0.370000005       1.11589218E-02
  0.405000001       3.88388373E-02
  0.439999998       6.76556006E-02
  0.474999994       9.44225341E-02
  0.509999990      0.115879878
  0.545000017      0.129127875
  0.579999983      0.132021800
  0.615000010      0.123475149
  0.649999976      0.103638090
  0.685000002       7.39391446E-02
  0.720000029       3.69832031E-02
  0.754999995      -3.68947443E-03
  0.790000021      -4.39663976E-02
  0.824999988      -7.96243027E-02
  0.860000014     -0.106857315
  0.894999981     -0.122820459
  0.930000007     -0.126105160
  0.964999974     -0.117035061
   1.00000000      -9.76740494E-02
   1.03499997      -7.14882463E-02
   1.07000005      -4.26892526E-02
   1.10500002      -1.53962215E-02
   1.13999999       7.15916930E-03
   1.17499995       2.31562555E-02
   1.21000004       3.22999246E-02
   1.24500000       3.55314873E-02
   1.27999997       3.44804674E-02
   1.31500006       3.08817960E-02
   1.35000002       2.61592790E-02
   1.38499999       2.12633982E-02
   1.41999996       1.67221427E-02
   1.45500004       1.27844764E-02
   1.49000001       9.53556597E-03
   1.52499998       6.93042064E-03
   1.55999994       4.77846386E-03
   1.59500003       2.75903614E-03
   1.63000000       5.26801508E-04
