 -0.800000012       0.00000000
 -0.788999975       0.00000000
 -0.777999997       0.00000000
 -0.767000020       0.00000000
 -0.755999982      -3.30543904E-12
 -0.745000005      -7.23186233E-11
 -0.734000027       5.49395696E-10
 -0.722999990      -1.30755673E-09
 -0.712000012      -7.47664264E-10
 -0.700999975       9.16009846E-09
 -0.689999998      -1.08182237E-08
 -0.679000020      -2.31805792E-08
 -0.667999983       6.38031281E-08
 -0.657000005       1.15892167E-08
 -0.646000028      -1.88275848E-07
 -0.634999990       1.08340870E-07
 -0.624000013       3.55797454E-07
 -0.612999976      -4.23419493E-07
 -0.601999998      -4.04387151E-07
 -0.591000021       8.62441823E-07
 -0.579999983       4.14140278E-09
 -0.569000006      -9.86834493E-07
 -0.558000028       1.28847523E-06
 -0.546999991       1.05405551E-08
 -0.536000013      -3.82213011E-06
 -0.524999976       2.58965565E-06
 -0.513999999       7.26237431E-06
 -0.503000021      -6.05057403E-06
 -0.492000014      -9.46762884E-06
 -0.481000006       8.26458563E-06
 -0.469999999       5.91093794E-06
 -0.458999991      -8.16282227E-06
 -0.448000014       7.34564446E-06
 -0.437000006       8.28853535E-06
 -0.425999999      -2.62977810E-05
 -0.414999992      -1.09482316E-05
 -0.404000014       3.61385501E-05
 -0.393000007       8.55524013E-06
 -0.381999999      -2.53604212E-05
 -0.370999992       1.23591117E-05
 -0.360000014       2.79007054E-06
 -0.349000007      -4.56532871E-05
 -0.338000000       1.98003254E-05
 -0.326999992       6.90840097E-05
 -0.316000015      -4.59059047E-05
 -0.305000007      -8.76197737E-05
 -0.294000000       2.76322007E-05
 -0.282999992       1.78363880E-05
 -0.272000015      -7.34368077E-05
 -0.261000007      -2.99727662E-06
 -0.250000000       2.68593667E-05
 -0.238999993      -1.26150771E-04
 -0.228000000      -1.42565390E-04
 -0.216999993      -1.17235213E-05
 -0.206000000      -6.94080372E-05
 -0.194999993      -2.10825878E-04
 -0.184000000      -2.14124258E-04
 -0.172999993      -2.62624962E-04
 -0.162000000      -3.94184608E-04
 -0.150999993      -4.28443309E-04
 -0.140000001      -5.17455861E-04
 -0.128999993      -7.65499950E-04
 -0.118000001      -9.18656238E-04
 -0.107000001      -1.02569989E-03
  -9.60000008E-02  -1.35532254E-03
  -8.50000009E-02  -1.71611446E-03
  -7.40000010E-02  -1.91830832E-03
  -6.30000010E-02  -2.22583162E-03
  -5.20000011E-02  -2.68884073E-03
  -4.10000011E-02  -3.06090689E-03
  -2.99999993E-02  -3.42788710E-03
  -1.89999994E-02  -3.92210716E-03
  -8.00000038E-03  -4.31024935E-03
   3.00000003E-03  -4.50053113E-03
   1.40000004E-02  -4.68285056E-03
   2.50000004E-02  -4.80143446E-03
   3.59999985E-02  -4.61083930E-03
   4.69999984E-02  -4.06421488E-03
   5.79999983E-02  -3.18874628E-03
   6.89999983E-02  -1.85768632E-03
   7.99999982E-02   1.38252348E-04
   9.09999982E-02   2.92636664E-03
  0.101999998       6.50707493E-03
  0.112999998       1.09517695E-02
  0.123999998       1.64843034E-02
  0.135000005       2.31681634E-02
  0.145999998       3.08969747E-02
  0.157000005       3.97646017E-02
  0.167999998       4.98531424E-02
  0.179000005       6.08674809E-02
  0.189999998       7.25353807E-02
  0.201000005       8.47906694E-02
  0.211999997       9.72324312E-02
  0.223000005      0.109144084
  0.233999997      0.119962677
  0.245000005      0.129052371
  0.256000012      0.135431543
  0.266999990      0.138066709
  0.277999997      0.135887727
  0.289000005      0.127610803
  0.300000012      0.111992083
  0.310999990       8.78706798E-02
  0.321999997       5.38938940E-02
  0.333000004       8.75060167E-03
  0.344000012      -4.85346504E-02
  0.354999989     -0.118835174
  0.365999997     -0.202875867
  0.377000004     -0.300840288
  0.388000011     -0.412515163
  0.398999989     -0.537495613
  0.409999996     -0.674724996
  0.421000004     -0.822211206
  0.432000011     -0.977412581
  0.442999989      -1.13737094
  0.453999996      -1.29833710
  0.465000004      -1.45569563
  0.476000011      -1.60427940
  0.486999989      -1.73842990
  0.497999996      -1.85189784
  0.509000003      -1.93810499
  0.519999981      -1.99051642
  0.531000018      -2.00266790
  0.541999996      -1.96825409
  0.552999973      -1.88162601
  0.564000010      -1.73817229
  0.574999988      -1.53442442
  0.586000025      -1.26838040
  0.597000003     -0.939861476
  0.607999980     -0.550573051
  0.619000018     -0.104340509
  0.629999995      0.392515332
  0.640999973      0.931341112
  0.652000010       1.50145352
  0.662999988       2.09004545
  0.674000025       2.68237853
  0.685000002       3.26245308
  0.695999980       3.81337285
  0.707000017       4.31763840
  0.717999995       4.75802279
  0.728999972       5.11839581
  0.740000010       5.38411045
  0.750999987       5.54265594
  0.762000024       5.58448505
  0.773000002       5.50335932
  0.783999979       5.29661036
  0.795000017       4.96561050
  0.805999994       4.51586866
  0.816999972       3.95678306
  0.828000009       3.30151320
  0.838999987       2.56662369
  0.850000024       1.77128148
  0.861000001      0.936650515
  0.871999979       8.54002386E-02
  0.883000016     -0.759345114
  0.893999994      -1.57519281
  0.904999971      -2.34099317
  0.916000009      -3.03726792
  0.926999986      -3.64724445
  0.938000023      -4.15766716
  0.949000001      -4.55883026
  0.959999979      -4.84466600
  0.971000016      -5.01314688
  0.981999993      -5.06614733
  0.992999971      -5.00883055
   1.00399995      -4.84941053
   1.01499999      -4.59900856
   1.02600002      -4.27085400
   1.03699994      -3.87932038
   1.04799998      -3.43955779
   1.05900002      -2.96722174
   1.07000005      -2.47763467
   1.08099997      -1.98493636
   1.09200001      -1.50187385
   1.10300004      -1.03978312
   1.11399996     -0.608231127
   1.12500000     -0.214667454
   1.13600004      0.135528907
   1.14699996      0.438872278
   1.15799999      0.693706810
   1.16900003      0.900116622
   1.17999995       1.05968988
   1.19099998       1.17517102
   1.20200002       1.25012112
   1.21300006       1.28874922
   1.22399998       1.29580545
   1.23500001       1.27624178
   1.24600005       1.23488522
   1.25699997       1.17643428
   1.26800001       1.10538077
   1.27900004       1.02568519
   1.28999996      0.940751612
   1.30100000      0.853634953
   1.31200004      0.766875148
   1.32299995      0.682319522
   1.33399999      0.601434231
   1.34500003      0.525486231
   1.35599995      0.455279678
   1.36699998      0.391144067
   1.37800002      0.333209425
   1.38900006      0.281412750
