 -0.959999979       0.00000000
 -0.925000012       0.00000000
 -0.889999986       2.50833643E-09
 -0.855000019       2.58473403E-08
 -0.819999993       1.16054210E-07
 -0.785000026       3.14121195E-07
 -0.750000000       5.96727546E-07
 -0.714999974       1.06913376E-06
 -0.680000007       2.34137133E-06
 -0.644999981       5.29281215E-06
 -0.610000014       1.04816136E-05
 -0.574999988       1.87033093E-05
 -0.540000021       3.20338295E-05
 -0.504999995       5.30759062E-05
 -0.469999999       8.33089871E-05
 -0.435000002       1.22740210E-04
 -0.400000006       1.69415856E-04
 -0.365000010       2.17534092E-04
 -0.330000013       2.56723084E-04
 -0.294999987       2.73318728E-04
 -0.259999990       2.51740654E-04
 -0.224999994       1.77335896E-04
 -0.189999998       4.21709592E-05
 -0.155000001      -1.50171531E-04
 -0.119999997      -3.82761267E-04
  -8.50000009E-02  -6.21537329E-04
  -5.00000007E-02  -8.06714408E-04
  -1.49999997E-02  -8.41882022E-04
   1.99999996E-02  -5.83957531E-04
   5.49999997E-02   1.55284564E-04
   9.00000036E-02   1.57007948E-03
  0.125000000       3.75644746E-03
  0.159999996       6.53596129E-03
  0.194999993       9.23436787E-03
  0.230000004       1.04862833E-02
  0.264999986       8.17905646E-03
  0.300000012      -3.46498360E-04
  0.335000008      -1.77729651E-02
  0.370000005      -4.59926277E-02
  0.405000001      -8.51543993E-02
  0.439999998     -0.132828236
  0.474999994     -0.183583379
  0.509999990     -0.229225606
  0.545000017     -0.259806365
  0.579999983     -0.265331328
  0.615000010     -0.237887904
  0.649999976     -0.173749432
  0.685000002      -7.49496818E-02
  0.720000029       5.01296706E-02
  0.754999995      0.187450245
  0.790000021      0.319298118
  0.824999988      0.427236080
  0.860000014      0.495437711
  0.894999981      0.513679504
  0.930000007      0.479303002
  0.964999974      0.397682935
   1.00000000      0.281105369
   1.03499997      0.146357179
   1.07000005       1.16135553E-02
   1.10500002     -0.106676877
   1.13999999     -0.196277067
   1.17499995     -0.250599116
   1.21000004     -0.268968374
   1.24500000     -0.255851060
   1.27999997     -0.219347224
   1.31500006     -0.169317678
   1.35000002     -0.115515485
   1.38499999      -6.60459548E-02
   1.41999996      -2.63865329E-02
   1.45500004       9.29956499E-04
   1.49000001       1.60128009E-02
   1.52499998       2.08742525E-02
   1.55999994       1.85210463E-02
   1.59500003       1.21331345E-02
   1.63000000       4.48134402E-03
