 -0.800000012       0.00000000
 -0.788999975       0.00000000
 -0.777999997       0.00000000
 -0.767000020       5.43103756E-13
 -0.755999982       1.35070969E-12
 -0.745000005       2.97479992E-11
 -0.734000027      -1.26382682E-10
 -0.722999990       2.62792760E-10
 -0.712000012      -3.91123439E-10
 -0.700999975      -6.36763975E-10
 -0.689999998       5.51778090E-09
 -0.679000020      -7.11152248E-09
 -0.667999983      -1.80886364E-08
 -0.657000005       5.07907494E-08
 -0.646000028       1.84573246E-08
 -0.634999990      -1.73614140E-07
 -0.624000013       6.40823501E-08
 -0.612999976       3.87457646E-07
 -0.601999998      -3.39363709E-07
 -0.591000021      -5.81793984E-07
 -0.579999983       8.53018093E-07
 -0.569000006       4.43506764E-07
 -0.558000028      -1.42995111E-06
 -0.546999991       4.87687998E-07
 -0.536000013       1.65257779E-06
 -0.524999976      -2.42360125E-06
 -0.513999999      -1.09077905E-06
 -0.503000021       4.50607831E-06
 -0.492000014      -5.86391650E-07
 -0.481000006      -4.26308179E-06
 -0.469999999       4.12344616E-06
 -0.458999991      -8.17334126E-07
 -0.448000014      -1.04908340E-05
 -0.437000006       9.47313583E-06
 -0.425999999       1.71779684E-05
 -0.414999992      -1.66676691E-05
 -0.404000014      -1.50115038E-05
 -0.393000007       2.18713049E-05
 -0.381999999      -1.30483420E-06
 -0.370999992      -2.80027980E-05
 -0.360000014       2.12147388E-05
 -0.349000007       2.14010652E-05
 -0.338000000      -4.67877289E-05
 -0.326999992      -1.38628809E-06
 -0.316000015       8.70929216E-05
 -0.305000007       2.77024828E-05
 -0.294000000      -1.34509864E-05
 -0.282999992       9.48078668E-05
 -0.272000015       1.19896955E-04
 -0.261000007       5.76096609E-05
 -0.250000000       1.58065232E-04
 -0.238999993       2.84310052E-04
 -0.228000000       2.54521176E-04
 -0.216999993       3.35413264E-04
 -0.206000000       5.99202525E-04
 -0.194999993       7.53662956E-04
 -0.184000000       9.01488587E-04
 -0.172999993       1.30800658E-03
 -0.162000000       1.76734827E-03
 -0.150999993       2.18346575E-03
 -0.140000001       2.87558138E-03
 -0.128999993       3.83267016E-03
 -0.118000001       4.83254530E-03
 -0.107000001       6.10869890E-03
  -9.60000008E-02   7.86334462E-03
  -8.50000009E-02   9.90135781E-03
  -7.40000010E-02   1.23002287E-02
  -6.30000010E-02   1.53577868E-02
  -5.20000011E-02   1.89868193E-02
  -4.10000011E-02   2.31554098E-02
  -2.99999993E-02   2.82037631E-02
  -1.89999994E-02   3.41785811E-02
  -8.00000038E-03   4.09137942E-02
   3.00000003E-03   4.86540869E-02
   1.40000004E-02   5.75775206E-02
   2.50000004E-02   6.74441382E-02
   3.59999985E-02   7.83074200E-02
   4.69999984E-02   9.04233381E-02
   5.79999983E-02  0.103510723
   6.89999983E-02  0.117260039
   7.99999982E-02  0.131821781
   9.09999982E-02  0.146982640
  0.101999998      0.162089676
  0.112999998      0.176942766
  0.123999998      0.191380277
  0.135000005      0.204558998
  0.145999998      0.215779930
  0.157000005      0.224848866
  0.167999998      0.231062397
  0.179000005      0.233352840
  0.189999998      0.231291711
  0.201000005      0.224523991
  0.211999997      0.212103531
  0.223000005      0.193446591
  0.233999997      0.168590620
  0.245000005      0.137170449
  0.256000012       9.87193361E-02
  0.266999990       5.36172576E-02
  0.277999997       2.39973445E-03
  0.289000005      -5.48065230E-02
  0.300000012     -0.117322758
  0.310999990     -0.183863789
  0.321999997     -0.253541082
  0.333000004     -0.325437963
  0.344000012     -0.397878230
  0.354999989     -0.469296634
  0.365999997     -0.538633704
  0.377000004     -0.604400933
  0.388000011     -0.664879620
  0.398999989     -0.719025433
  0.409999996     -0.765904963
  0.421000004     -0.804206133
  0.432000011     -0.833120823
  0.442999989     -0.852402687
  0.453999996     -0.861482203
  0.465000004     -0.859867930
  0.476000011     -0.847793698
  0.486999989     -0.825441062
  0.497999996     -0.792607069
  0.509000003     -0.749560177
  0.519999981     -0.696890891
  0.531000018     -0.634657860
  0.541999996     -0.562846065
  0.552999973     -0.481971830
  0.564000010     -0.392385751
  0.574999988     -0.293981552
  0.586000025     -0.187029988
  0.597000003      -7.22326338E-02
  0.607999980       4.99942787E-02
  0.619000018      0.179192647
  0.629999995      0.314173311
  0.640999973      0.453449011
  0.652000010      0.595590711
  0.662999988      0.738618612
  0.674000025      0.879892111
  0.685000002       1.01669800
  0.695999980       1.14614463
  0.707000017       1.26483679
  0.717999995       1.36933291
  0.728999972       1.45641518
  0.740000010       1.52282965
  0.750999987       1.56557715
  0.762000024       1.58236063
  0.773000002       1.57135212
  0.783999979       1.53123295
  0.795000017       1.46178412
  0.805999994       1.36378753
  0.816999972       1.23858273
  0.828000009       1.08843255
  0.838999987      0.916799605
  0.850000024      0.727733433
  0.861000001      0.525604844
  0.871999979      0.315504342
  0.883000016      0.102999806
  0.893999994     -0.106606215
  0.904999971     -0.308255643
  0.916000009     -0.496856123
  0.926999986     -0.667831004
  0.938000023     -0.817623675
  0.949000001     -0.943343103
  0.959999979      -1.04265428
  0.971000016      -1.11434484
  0.981999993      -1.15834141
  0.992999971      -1.17516720
   1.00399995      -1.16604519
   1.01499999      -1.13321292
   1.02600002      -1.07946873
   1.03699994      -1.00777185
   1.04799998     -0.921500862
   1.05900002     -0.824375391
   1.07000005     -0.719925642
   1.08099997     -0.611478567
   1.09200001     -0.502343953
   1.10300004     -0.395476431
   1.11399996     -0.293244869
   1.12500000     -0.197703853
   1.13600004     -0.110593066
   1.14699996      -3.30082662E-02
   1.15799999       3.44662592E-02
   1.16900003       9.14242715E-02
   1.17999995      0.137828171
   1.19099998      0.174183875
   1.20200002      0.201145932
   1.21300006      0.219357282
   1.22399998      0.229798004
   1.23500001      0.233656153
   1.24600005      0.231878951
   1.25699997      0.225401610
   1.26800001      0.215397000
   1.27900004      0.202815130
   1.28999996      0.188301235
   1.30100000      0.172674000
   1.31200004      0.156708434
   1.32299995      0.140733078
   1.33399999      0.125079840
   1.34500003      0.110275060
   1.35599995       9.64817032E-02
   1.36699998       8.36055130E-02
   1.37800002       7.18499422E-02
   1.38900006       6.13920763E-02
