 -0.800000012       0.00000000
 -0.788999975       0.00000000
 -0.777999997       0.00000000
 -0.767000020      -8.44151291E-05
 -0.755999982       2.49857858E-05
 -0.745000005       1.19126157E-03
 -0.734000027      -1.62989949E-03
 -0.722999990      -3.21246893E-03
 -0.712000012       7.26160547E-03
 -0.700999975       2.19366443E-03
 -0.689999998      -1.63308345E-02
 -0.679000020       8.98345374E-03
 -0.667999983       2.09536590E-02
 -0.657000005      -3.39402929E-02
 -0.646000028      -5.44024631E-03
 -0.634999990       6.61392957E-02
 -0.624000013      -4.40921709E-02
 -0.612999976      -8.75120983E-02
 -0.601999998      0.121576279
 -0.591000021       7.10914806E-02
 -0.579999983     -0.192938134
 -0.569000006       1.03874402E-02
 -0.558000028      0.218609437
 -0.546999991     -0.151737973
 -0.536000013     -0.173543677
 -0.524999976      0.293405920
 -0.513999999       4.82364818E-02
 -0.503000021     -0.354851574
 -0.492000014      0.137615010
 -0.481000006      0.290467143
 -0.469999999     -0.306788921
 -0.458999991      -8.83775428E-02
 -0.448000014      0.382758826
 -0.437000006     -0.192735955
 -0.425999999     -0.316616416
 -0.414999992      0.439013451
 -0.404000014      0.111100882
 -0.393000007     -0.512073815
 -0.381999999      0.233935729
 -0.370999992      0.428459495
 -0.360000014     -0.548673451
 -0.349000007     -0.160979569
 -0.338000000      0.777008891
 -0.326999992      -8.95282328E-02
 -0.316000015     -0.653022170
 -0.305000007      0.459744960
 -0.294000000      0.470250815
 -0.282999992     -0.509271741
 -0.272000015      0.118236974
 -0.261000007      0.764587402
 -0.250000000     -0.204390943
 -0.238999993     -0.259363115
 -0.228000000      0.821791232
 -0.216999993      0.455879122
 -0.206000000     -0.148827121
 -0.194999993      0.749107063
 -0.184000000      0.911562085
 -0.172999993       1.98513102E-02
 -0.162000000      0.652392149
 -0.150999993       1.62063956
 -0.140000001      0.785707235
 -0.128999993      0.462942690
 -0.118000001       1.70605862
 -0.107000001       1.69871974
  -9.60000008E-02  0.738251984
  -8.50000009E-02   1.43897331
  -7.40000010E-02   2.25126100
  -6.30000010E-02   1.24818015
  -5.20000011E-02  0.722804248
  -4.10000011E-02   1.58997107
  -2.99999993E-02   1.37005949
  -1.89999994E-02  0.124981642
  -8.00000038E-03 -0.111742243
   3.00000003E-03 -0.309925258
   1.40000004E-02  -1.78319097
   2.50000004E-02  -3.00419831
   3.59999985E-02  -3.55473042
   4.69999984E-02  -5.17515802
   5.79999983E-02  -7.44430065
   6.89999983E-02  -8.85717964
   7.99999982E-02  -10.5520515
   9.09999982E-02  -13.3385229
  0.101999998      -15.4525928
  0.112999998      -16.9002132
  0.123999998      -19.5174122
  0.135000005      -22.1193752
  0.145999998      -22.9461040
  0.157000005      -23.8422966
  0.167999998      -25.5882931
  0.179000005      -25.6248302
  0.189999998      -24.0126476
  0.201000005      -22.9822292
  0.211999997      -21.1272182
  0.223000005      -16.6413193
  0.233999997      -11.5420818
  0.245000005      -6.58083296
  0.256000012      0.406002462
  0.266999990       9.02783585
  0.277999997       17.4413414
  0.289000005       26.6183968
  0.300000012       37.1768990
  0.310999990       47.2603340
  0.321999997       56.5563087
  0.333000004       66.1511612
  0.344000012       74.9803772
  0.354999989       81.6966782
  0.365999997       86.9694443
  0.377000004       90.7872772
  0.388000011       91.7013092
  0.398999989       89.6906967
  0.409999996       85.7023849
  0.421000004       79.0913467
  0.432000011       69.0103455
  0.442999989       56.3967552
  0.453999996       42.0725098
  0.465000004       25.5510044
  0.476000011       7.20951509
  0.486999989      -11.5628567
  0.497999996      -30.6006584
  0.509000003      -49.9991417
  0.519999981      -68.2964401
  0.531000018      -84.4437714
  0.541999996      -98.8125229
  0.552999973      -110.873657
  0.564000010      -119.456039
  0.574999988      -124.812988
  0.586000025      -127.175591
  0.597000003      -125.604828
  0.607999980      -120.179558
  0.619000018      -112.082619
  0.629999995      -101.438339
  0.640999973      -87.9413757
  0.652000010      -72.3860626
  0.662999988      -55.7957726
  0.674000025      -38.5428467
  0.685000002      -20.9196892
  0.695999980      -3.65398741
  0.707000017       12.3410187
  0.717999995       26.8362389
  0.728999972       40.0881195
  0.740000010       51.3501625
  0.750999987       59.6546059
  0.762000024       65.6839218
  0.773000002       70.0786667
  0.783999979       71.9463806
  0.795000017       71.3321609
  0.805999994       69.4329681
  0.816999972       65.9578094
  0.828000009       60.5278015
  0.838999987       54.5060806
  0.850000024       48.2907753
  0.861000001       41.0539131
  0.871999979       33.7000885
  0.883000016       27.1381149
  0.893999994       20.2891731
  0.904999971       13.4570551
  0.916000009       8.33298016
  0.926999986       3.89999676
  0.938000023      -1.18554711
  0.949000001      -5.02784348
  0.959999979      -6.91625643
  0.971000016      -9.18707943
  0.981999993      -11.6224937
  0.992999971      -12.0476027
   1.00399995      -11.8432789
   1.01499999      -12.8083248
   1.02600002      -12.9433393
   1.03699994      -11.4729052
   1.04799998      -10.7867813
   1.05900002      -10.7327795
   1.07000005      -9.37703705
   1.08099997      -7.95990610
   1.09200001      -7.68185616
   1.10300004      -6.77409172
   1.11399996      -5.19261169
   1.12500000      -4.76754427
   1.13600004      -4.51570511
   1.14699996      -3.25970340
   1.15799999      -2.73032975
   1.16900003      -2.98387313
   1.17999995      -2.06352687
   1.19099998      -1.16757083
   1.20200002      -1.86242008
   1.21300006      -1.91017699
   1.22399998     -0.605925620
   1.23500001     -0.641727805
   1.24600005      -1.54650605
   1.25699997     -0.794746518
   1.26800001       4.81271222E-02
   1.27900004     -0.783106267
   1.28999996     -0.980758905
   1.30100000      0.132140368
   1.31200004       7.67821744E-02
   1.32299995     -0.711616516
   1.33399999     -0.192647830
   1.34500003      0.346779287
   1.35599995     -0.225082740
   1.36699998     -0.217012092
   1.37800002      0.413622767
   1.38900006      0.100085795
