 -0.959999979       0.00000000
 -0.925000012      -9.54433949E-22
 -0.889999986      -1.90886790E-21
 -0.855000019       2.84213164E-13
 -0.819999993       1.71264890E-12
 -0.785000026      -9.57981958E-13
 -0.750000000      -5.21406486E-12
 -0.714999974      -5.24185036E-12
 -0.680000007       4.37192921E-11
 -0.644999981       1.06508448E-10
 -0.610000014      -1.68215428E-10
 -0.574999988      -3.63940073E-10
 -0.540000021       8.66473893E-10
 -0.504999995       1.50541868E-09
 -0.469999999       1.33707809E-10
 -0.435000002      -1.50407231E-09
 -0.400000006      -1.91910665E-09
 -0.365000010      -5.55993829E-09
 -0.330000013      -1.19785515E-09
 -0.294999987      -3.25512395E-09
 -0.259999990       1.79873663E-08
 -0.224999994       6.96247682E-08
 -0.189999998      -4.41315073E-08
 -0.155000001      -1.57178391E-07
 -0.119999997       2.15304361E-08
  -8.50000009E-02   1.70803204E-07
  -5.00000007E-02   7.65457884E-08
  -1.49999997E-02  -9.33529947E-08
   1.99999996E-02  -1.74477094E-07
   5.49999997E-02  -1.33145157E-08
   9.00000036E-02   1.04140668E-07
  0.125000000      -1.25263043E-07
  0.159999996       3.15520339E-08
  0.194999993       4.69410253E-07
  0.230000004       2.99931244E-08
  0.264999986      -4.60469579E-07
  0.300000012       2.61845372E-07
  0.335000008       4.91810283E-07
  0.370000005      -5.63304582E-07
  0.405000001      -7.24410825E-07
  0.439999998       2.43681342E-07
  0.474999994       7.45987165E-07
  0.509999990       2.45537962E-07
  0.545000017      -7.89407466E-07
  0.579999983      -8.40882478E-07
  0.615000010       3.27902455E-07
  0.649999976       6.77702474E-07
  0.685000002       2.30919738E-07
  0.720000029       3.93710167E-07
  0.754999995       1.09710939E-07
  0.790000021      -7.62517459E-07
  0.824999988      -8.10195729E-07
  0.860000014      -5.41704424E-07
  0.894999981       2.26016809E-07
  0.930000007       1.63422146E-06
  0.964999974       4.80784308E-07
   1.00000000      -2.24469932E-06
   1.03499997      -1.41623968E-06
   1.07000005       1.51272286E-06
   1.10500002       1.89109562E-06
   1.13999999       4.53264448E-08
   1.17499995      -1.05114259E-06
   1.21000004      -3.60135914E-07
   1.24500000       1.35168034E-06
   1.27999997       1.68630788E-06
   1.31500006      -2.23223708E-07
   1.35000002      -1.40307554E-06
   1.38499999      -9.64146125E-07
   1.41999996      -9.69979737E-07
   1.45500004      -7.55035501E-07
   1.49000001       8.70088968E-07
   1.52499998       1.88846627E-06
   1.55999994       1.06865866E-06
   1.59500003      -3.92823836E-07
   1.63000000      -1.61404137E-06
