 -0.959999979       0.00000000
 -0.925000012      -2.14074928E-21
 -0.889999986      -4.28149856E-21
 -0.855000019      -8.59853530E-13
 -0.819999993       3.77095057E-12
 -0.785000026      -1.04296129E-11
 -0.750000000       2.18056146E-11
 -0.714999974       3.62936313E-11
 -0.680000007       7.51493034E-11
 -0.644999981      -3.71508900E-11
 -0.610000014      -2.54557181E-10
 -0.574999988      -2.09536624E-11
 -0.540000021      -2.41592052E-10
 -0.504999995      -1.78264403E-10
 -0.469999999      -1.67081016E-09
 -0.435000002       1.36210920E-09
 -0.400000006       3.63037711E-09
 -0.365000010      -8.28373192E-09
 -0.330000013       4.36069764E-10
 -0.294999987       2.59262001E-10
 -0.259999990      -2.26334720E-08
 -0.224999994       1.84932691E-08
 -0.189999998       2.47651428E-08
 -0.155000001      -3.68812785E-08
 -0.119999997       8.54183480E-09
  -8.50000009E-02   6.96214997E-08
  -5.00000007E-02   4.53644988E-09
  -1.49999997E-02  -1.01888652E-07
   1.99999996E-02  -1.04866075E-07
   5.49999997E-02   4.11668175E-08
   9.00000036E-02  -9.48004697E-08
  0.125000000      -1.74521134E-07
  0.159999996       5.07690004E-07
  0.194999993       5.96670020E-07
  0.230000004      -5.29952786E-07
  0.264999986      -6.28746420E-07
  0.300000012       5.57313115E-07
  0.335000008       3.91954529E-07
  0.370000005      -9.29433554E-07
  0.405000001      -4.09061272E-07
  0.439999998       1.37800214E-06
  0.474999994       3.18619186E-07
  0.509999990      -1.50355970E-06
  0.545000017       1.56232488E-07
  0.579999983       1.53109886E-06
  0.615000010      -3.69308339E-07
  0.649999976      -1.20332572E-06
  0.685000002       9.97191250E-07
  0.720000029       1.45964350E-06
  0.754999995      -9.38233143E-07
  0.790000021      -1.52477651E-06
  0.824999988      -2.54536275E-07
  0.860000014      -6.93388586E-07
  0.894999981      -8.95988762E-07
  0.930000007       1.69416944E-06
  0.964999974       2.94188112E-06
   1.00000000       3.01689020E-08
   1.03499997      -2.47525827E-06
   1.07000005      -1.34081017E-06
   1.10500002       6.41250551E-07
   1.13999999       1.11130043E-06
   1.17499995       6.19002321E-07
   1.21000004       2.21173284E-08
   1.24500000      -3.83260954E-07
   1.27999997      -1.02495903E-06
   1.31500006      -1.68951715E-06
   1.35000002      -5.51315225E-07
   1.38499999       1.96638553E-06
   1.41999996       2.39176325E-06
   1.45500004       1.92001764E-07
   1.49000001      -1.23692701E-06
   1.52499998      -8.50978154E-07
   1.55999994      -2.95432841E-07
   1.59500003       4.90094919E-07
   1.63000000       1.26568125E-06
