 -0.959999979       0.00000000
 -0.925000012      -4.60825246E-23
 -0.889999986       9.18206595E-08
 -0.855000019       1.47097217E-06
 -0.819999993       3.34272818E-06
 -0.785000026       2.11261408E-06
 -0.750000000       3.56753253E-06
 -0.714999974       1.96861965E-05
 -0.680000007       4.49590989E-05
 -0.644999981       6.76296768E-05
 -0.610000014       1.03427155E-04
 -0.574999988       1.79150637E-04
 -0.540000021       2.97890889E-04
 -0.504999995       4.48206585E-04
 -0.469999999       6.13031385E-04
 -0.435000002       7.60751485E-04
 -0.400000006       8.68356728E-04
 -0.365000010       9.37524776E-04
 -0.330000013       9.74987284E-04
 -0.294999987       1.05004583E-03
 -0.259999990       1.44584069E-03
 -0.224999994       2.75806570E-03
 -0.189999998       5.93807921E-03
 -0.155000001       1.23765711E-02
 -0.119999997       2.39148885E-02
  -8.50000009E-02   4.25957143E-02
  -5.00000007E-02   7.01063648E-02
  -1.49999997E-02  0.106859170
   1.99999996E-02  0.150703415
   5.49999997E-02  0.195632383
   9.00000036E-02  0.231122538
  0.125000000      0.242745847
  0.159999996      0.214623570
  0.194999993      0.133768752
  0.230000004      -4.74577211E-03
  0.264999986     -0.193615660
  0.300000012     -0.411829412
  0.335000008     -0.626998186
  0.370000005     -0.801454306
  0.405000001     -0.900355637
  0.439999998     -0.899068892
  0.474999994     -0.787771940
  0.509999990     -0.572571456
  0.545000017     -0.273625225
  0.579999983       7.83021599E-02
  0.615000010      0.445391536
  0.649999976      0.786124408
  0.685000002       1.05912936
  0.720000029       1.22808278
  0.754999995       1.26752687
  0.790000021       1.16856205
  0.824999988      0.942427278
  0.860000014      0.620000064
  0.894999981      0.246655032
  0.930000007     -0.126373604
  0.964999974     -0.451773852
   1.00000000     -0.694208980
   1.03499997     -0.834444761
   1.07000005     -0.869196057
   1.10500002     -0.808065057
   1.13999999     -0.669609070
   1.17499995     -0.478172541
   1.21000004     -0.261823744
   1.24500000      -5.02777994E-02
   1.27999997      0.128581971
   1.31500006      0.253665656
   1.35000002      0.315455705
   1.38499999      0.318090320
   1.41999996      0.276983202
   1.45500004      0.212460786
   1.49000001      0.142380416
   1.52499998       7.74790943E-02
   1.55999994       2.14988068E-02
   1.59500003      -2.49245092E-02
   1.63000000      -5.99844716E-02
