 -0.800000012       0.00000000
 -0.788999975       0.00000000
 -0.777999997       0.00000000
 -0.767000020      -3.16153929E-14
 -0.755999982      -1.50173114E-13
 -0.745000005      -3.85425036E-13
 -0.734000027       1.07646661E-12
 -0.722999990      -3.10850656E-13
 -0.712000012      -3.56394357E-13
 -0.700999975      -5.51395138E-13
 -0.689999998       1.03586258E-12
 -0.679000020       5.44535424E-12
 -0.667999983      -2.10593652E-12
 -0.657000005      -1.17543985E-12
 -0.646000028      -5.06821364E-12
 -0.634999990       5.72927426E-12
 -0.624000013       4.94377195E-12
 -0.612999976      -1.89262720E-11
 -0.601999998       1.49846333E-11
 -0.591000021       4.63931359E-11
 -0.579999983       1.20564522E-11
 -0.569000006      -7.06819256E-11
 -0.558000028       1.15016774E-10
 -0.546999991       2.71677993E-11
 -0.536000013      -1.77709791E-10
 -0.524999976       2.21521038E-10
 -0.513999999      -8.74011488E-11
 -0.503000021      -1.51747625E-11
 -0.492000014       6.01233008E-10
 -0.481000006      -6.36060260E-10
 -0.469999999      -8.86363691E-11
 -0.458999991       7.36156025E-10
 -0.448000014      -1.22748112E-09
 -0.437000006       1.21413923E-09
 -0.425999999       1.57195312E-09
 -0.414999992      -3.09440562E-09
 -0.404000014       1.79707471E-09
 -0.393000007       1.06630160E-09
 -0.381999999      -2.82211188E-09
 -0.370999992      -2.27704100E-09
 -0.360000014       2.91462321E-09
 -0.349000007      -8.25815472E-10
 -0.338000000       3.76587428E-10
 -0.326999992       3.40267525E-09
 -0.316000015      -3.53561824E-09
 -0.305000007      -8.21615931E-09
 -0.294000000       5.77938053E-09
 -0.282999992       5.53573098E-09
 -0.272000015       1.91940974E-09
 -0.261000007       1.15074075E-08
 -0.250000000      -1.57148339E-08
 -0.238999993      -1.97436147E-08
 -0.228000000       1.56728408E-08
 -0.216999993       3.40139295E-09
 -0.206000000      -2.10793338E-08
 -0.194999993       1.66600813E-08
 -0.184000000       2.82763448E-08
 -0.172999993      -3.30195533E-08
 -0.162000000      -4.25037250E-09
 -0.150999993       3.90164843E-08
 -0.140000001      -3.88401844E-08
 -0.128999993      -7.20108844E-08
 -0.118000001       6.07174186E-08
 -0.107000001       8.14916987E-08
  -9.60000008E-02  -1.42771848E-08
  -8.50000009E-02   5.18364587E-08
  -7.40000010E-02   3.36477868E-08
  -6.30000010E-02  -1.28101405E-07
  -5.20000011E-02  -9.38619582E-09
  -4.10000011E-02   1.46034267E-07
  -2.99999993E-02   3.19609983E-09
  -1.89999994E-02  -1.01997976E-07
  -8.00000038E-03  -2.01607371E-08
   3.00000003E-03  -9.89986262E-08
   1.40000004E-02   3.68704089E-09
   2.50000004E-02   2.33894738E-07
   3.59999985E-02   9.29463084E-08
   4.69999984E-02  -1.34483940E-07
   5.79999983E-02  -6.27398862E-08
   6.89999983E-02  -2.90043616E-08
   7.99999982E-02  -1.62285275E-07
   9.09999982E-02   7.44894848E-08
  0.101999998       2.56550010E-07
  0.112999998       5.63752280E-08
  0.123999998      -9.18149539E-08
  0.135000005      -9.62872448E-08
  0.145999998      -1.08577481E-07
  0.157000005      -8.60449774E-08
  0.167999998      -5.45451719E-08
  0.179000005       4.36182503E-08
  0.189999998       2.46687392E-07
  0.201000005       1.78505303E-07
  0.211999997      -1.81316892E-07
  0.223000005      -1.05972767E-07
  0.233999997       1.26380513E-07
  0.245000005      -1.77814840E-07
  0.256000012      -2.68935565E-07
  0.266999990       1.85348696E-07
  0.277999997       2.46970188E-07
  0.289000005      -3.18232267E-08
  0.300000012       2.42032350E-08
  0.310999990       1.32277771E-08
  0.321999997      -2.55331003E-07
  0.333000004      -2.51914827E-07
  0.344000012       4.01387616E-08
  0.354999989       8.23583974E-08
  0.365999997      -4.69353845E-09
  0.377000004       1.15537063E-07
  0.388000011       2.02142559E-07
  0.398999989       4.75311346E-08
  0.409999996      -1.69890242E-07
  0.421000004      -2.25702550E-07
  0.432000011      -3.84580296E-08
  0.442999989       1.70339916E-07
  0.453999996       1.48093775E-07
  0.465000004       5.74555026E-09
  0.476000011       1.95004120E-08
  0.486999989       2.32440875E-08
  0.497999996      -1.18850984E-07
  0.509000003      -1.50300508E-07
  0.519999981       4.39532215E-08
  0.531000018       1.85199838E-07
  0.541999996      -1.27863995E-08
  0.552999973      -1.49397479E-07
  0.564000010       4.05396321E-08
  0.574999988       1.38090030E-07
  0.586000025      -7.16619937E-08
  0.597000003      -5.00166664E-08
  0.607999980       2.24052201E-07
  0.619000018       9.98562868E-08
  0.629999995      -1.99202233E-07
  0.640999973      -8.94981724E-08
  0.652000010       1.16037064E-07
  0.662999988       6.57853789E-08
  0.674000025      -3.14684385E-08
  0.685000002      -1.28815572E-07
  0.695999980      -1.32296591E-07
  0.707000017       1.34792955E-07
  0.717999995       2.21008449E-07
  0.728999972      -1.13445580E-07
  0.740000010      -1.78056666E-07
  0.750999987       9.37346485E-08
  0.762000024       2.05603907E-08
  0.773000002      -1.92790168E-07
  0.783999979      -3.98059221E-08
  0.795000017       1.18333787E-07
  0.805999994       5.06486941E-09
  0.816999972      -6.96043898E-08
  0.828000009      -2.14507101E-09
  0.838999987       6.40529620E-08
  0.850000024       7.15273387E-08
  0.861000001       1.66244352E-08
  0.871999979      -1.65288672E-08
  0.883000016      -1.63492704E-08
  0.893999994      -6.90568314E-08
  0.904999971      -4.44942003E-08
  0.916000009       7.28890583E-08
  0.926999986       1.70947221E-08
  0.938000023      -6.48551222E-08
  0.949000001       8.21123649E-08
  0.959999979       1.04234481E-07
  0.971000016      -1.15974281E-07
  0.981999993      -1.06230196E-07
  0.992999971       8.29366869E-08
   1.00399995       1.98857588E-08
   1.01499999      -1.40362317E-07
   1.02600002      -6.77808671E-08
   1.03699994       1.31461761E-07
   1.04799998       1.65995814E-07
   1.05900002      -4.61283634E-08
   1.07000005      -1.66029949E-07
   1.08099997       3.06870049E-08
   1.09200001       8.87403502E-08
   1.10300004      -1.53432666E-07
   1.11399996      -1.01412965E-07
   1.12500000       1.93357678E-07
   1.13600004       1.09581144E-07
   1.14699996      -1.04658810E-07
   1.15799999      -2.51158632E-08
   1.16900003       2.23575487E-08
   1.17999995      -4.60032545E-08
   1.19099998       3.36848132E-08
   1.20200002       7.91811203E-08
   1.21300006      -2.69651634E-09
   1.22399998       3.08375405E-08
   1.23500001       1.03264711E-07
   1.24600005       6.05935213E-08
   1.25699997      -2.59329340E-08
   1.26800001      -1.36230213E-07
   1.27900004      -1.29311260E-07
   1.28999996       6.35391189E-08
   1.30100000       7.73213884E-08
   1.31200004      -8.50804653E-08
   1.32299995      -4.32078012E-10
   1.33399999       9.67338565E-08
   1.34500003      -9.07265374E-08
   1.35599995      -1.14763388E-07
   1.36699998       1.00308753E-07
   1.37800002       1.05636758E-07
   1.38900006       1.68247585E-08
