 -0.800000012       0.00000000
 -0.788999975       0.00000000
 -0.777999997       0.00000000
 -0.767000020      -1.82193709E-08
 -0.755999982      -4.18974544E-08
 -0.745000005       4.69074308E-07
 -0.734000027      -2.90906399E-07
 -0.722999990      -2.41927319E-06
 -0.712000012       2.78070638E-06
 -0.700999975       6.22822927E-06
 -0.689999998      -1.03817647E-05
 -0.679000020      -8.57081614E-06
 -0.667999983       2.58569962E-05
 -0.657000005       1.87346996E-06
 -0.646000028      -4.97191468E-05
 -0.634999990       1.83690299E-05
 -0.624000013       7.41558324E-05
 -0.612999976      -4.45202131E-05
 -0.601999998      -7.41292679E-05
 -0.591000021       6.54308315E-05
 -0.579999983       1.91025811E-05
 -0.569000006      -8.64718313E-05
 -0.558000028       8.02841241E-05
 -0.546999991       1.13985836E-04
 -0.536000013      -1.50421823E-04
 -0.524999976      -1.08280597E-04
 -0.513999999       1.33351918E-04
 -0.503000021       2.35717234E-05
 -0.492000014      -5.18273555E-05
 -0.481000006       9.15521669E-05
 -0.469999999      -6.46250555E-05
 -0.458999991      -1.42242759E-04
 -0.448000014       2.23829367E-04
 -0.437000006       1.33034337E-04
 -0.425999999      -3.71178729E-04
 -0.414999992      -2.24465053E-04
 -0.404000014       5.70971497E-05
 -0.393000007      -1.31021909E-04
 -0.381999999       8.21159847E-05
 -0.370999992       2.87194998E-04
 -0.360000014      -5.15027321E-04
 -0.349000007      -8.78949591E-04
 -0.338000000      -7.55308938E-05
 -0.326999992      -5.27149132E-05
 -0.316000015      -8.76552367E-04
 -0.305000007      -9.79530159E-04
 -0.294000000      -1.18240784E-03
 -0.282999992      -1.96977984E-03
 -0.272000015      -1.86365587E-03
 -0.261000007      -1.69428217E-03
 -0.250000000      -3.04614357E-03
 -0.238999993      -4.38273931E-03
 -0.228000000      -5.04736742E-03
 -0.216999993      -6.55014627E-03
 -0.206000000      -7.98011944E-03
 -0.194999993      -8.60605575E-03
 -0.184000000      -1.09725380E-02
 -0.172999993      -1.49087878E-02
 -0.162000000      -1.73528753E-02
 -0.150999993      -1.94478650E-02
 -0.140000001      -2.34877337E-02
 -0.128999993      -2.76570618E-02
 -0.118000001      -3.13628726E-02
 -0.107000001      -3.65494154E-02
  -9.60000008E-02  -4.20050062E-02
  -8.50000009E-02  -4.62640300E-02
  -7.40000010E-02  -5.14652021E-02
  -6.30000010E-02  -5.77659979E-02
  -5.20000011E-02  -6.28063828E-02
  -4.10000011E-02  -6.74077049E-02
  -2.99999993E-02  -7.26666600E-02
  -1.89999994E-02  -7.66192079E-02
  -8.00000038E-03  -7.94051364E-02
   3.00000003E-03  -8.29990134E-02
   1.40000004E-02  -8.57987776E-02
   2.50000004E-02  -8.61840695E-02
   3.59999985E-02  -8.63376409E-02
   4.69999984E-02  -8.71810392E-02
   5.79999983E-02  -8.74360353E-02
   6.89999983E-02  -8.82361084E-02
   7.99999982E-02  -9.11430642E-02
   9.09999982E-02  -9.54459086E-02
  0.101999998     -0.102124006
  0.112999998     -0.114347160
  0.123999998     -0.133203357
  0.135000005     -0.158811703
  0.145999998     -0.193119168
  0.157000005     -0.237796023
  0.167999998     -0.293597341
  0.179000005     -0.362434477
  0.189999998     -0.445554882
  0.201000005     -0.541632593
  0.211999997     -0.649776816
  0.223000005     -0.770338535
  0.233999997     -0.901226819
  0.245000005      -1.03801847
  0.256000012      -1.17703962
  0.266999990      -1.31399381
  0.277999997      -1.44198322
  0.289000005      -1.55399466
  0.300000012      -1.64363933
  0.310999990      -1.70241094
  0.321999997      -1.72073936
  0.333000004      -1.69111586
  0.344000012      -1.60687995
  0.354999989      -1.46105659
  0.365999997      -1.24864912
  0.377000004     -0.966771483
  0.388000011     -0.613515913
  0.398999989     -0.190308332
  0.409999996      0.297237128
  0.421000004      0.841951370
  0.432000011       1.43429708
  0.442999989       2.06015205
  0.453999996       2.70327330
  0.465000004       3.34666634
  0.476000011       3.97013330
  0.486999989       4.55172586
  0.497999996       5.07137537
  0.509000003       5.50956154
  0.519999981       5.84629154
  0.531000018       6.06460333
  0.541999996       6.15190458
  0.552999973       6.09860134
  0.564000010       5.89938402
  0.574999988       5.55456257
  0.586000025       5.06878662
  0.597000003       4.45109940
  0.607999980       3.71605277
  0.619000018       2.88260579
  0.629999995       1.97284472
  0.640999973       1.01186383
  0.652000010       2.65321732E-02
  0.662999988     -0.955985725
  0.674000025      -1.90848994
  0.685000002      -2.80475783
  0.695999980      -3.62132287
  0.707000017      -4.33799934
  0.717999995      -4.93805552
  0.728999972      -5.40920591
  0.740000010      -5.74409962
  0.750999987      -5.93982458
  0.762000024      -5.99775839
  0.773000002      -5.92394876
  0.783999979      -5.72878456
  0.795000017      -5.42562675
  0.805999994      -5.02971745
  0.816999972      -4.55810738
  0.828000009      -4.02934408
  0.838999987      -3.46223617
  0.850000024      -2.87493944
  0.861000001      -2.28468513
  0.871999979      -1.70708334
  0.883000016      -1.15533459
  0.893999994     -0.640419066
  0.904999971     -0.171581060
  0.916000009      0.244171530
  0.926999986      0.602992952
  0.938000023      0.903798103
  0.949000001       1.14669871
  0.959999979       1.33276296
  0.971000016       1.46520674
  0.981999993       1.54903090
  0.992999971       1.58935928
   1.00399995       1.59160292
   1.01499999       1.56219447
   1.02600002       1.50724339
   1.03699994       1.43172395
   1.04799998       1.34085000
   1.05900002       1.24020028
   1.07000005       1.13426685
   1.08099997       1.02648938
   1.09200001      0.919814110
   1.10300004      0.816374183
   1.11399996      0.718043268
   1.12500000      0.626821518
   1.13600004      0.543443799
   1.14699996      0.467531472
   1.15799999      0.399497926
   1.16900003      0.339608312
   1.17999995      0.286511034
   1.19099998      0.239601687
   1.20200002      0.199826926
   1.21300006      0.166251272
   1.22399998      0.136390314
   1.23500001      0.110238917
   1.24600005       8.88729915E-02
   1.25699997       7.08953738E-02
   1.26800001       5.48907816E-02
   1.27900004       4.16992642E-02
   1.28999996       3.12431026E-02
   1.30100000       2.19526328E-02
   1.31200004       1.40214134E-02
   1.32299995       8.35714862E-03
   1.33399999       4.00604727E-03
   1.34500003       1.96257606E-04
   1.35599995      -2.56232894E-03
   1.36699998      -4.65397630E-03
   1.37800002      -6.51471922E-03
   1.38900006      -7.15971785E-03
