 -0.959999979       0.00000000
 -0.925000012       4.66756155E-23
 -0.889999986      -9.18205174E-08
 -0.855000019      -1.47097239E-06
 -0.819999993      -3.34272863E-06
 -0.785000026      -2.11260954E-06
 -0.750000000      -3.56752366E-06
 -0.714999974      -1.96861838E-05
 -0.680000007      -4.49591207E-05
 -0.644999981      -6.76297059E-05
 -0.610000014      -1.03427090E-04
 -0.574999988      -1.79150346E-04
 -0.540000021      -2.97890714E-04
 -0.504999995      -4.48206381E-04
 -0.469999999      -6.13032607E-04
 -0.435000002      -7.60754570E-04
 -0.400000006      -8.68357019E-04
 -0.365000010      -9.37514647E-04
 -0.330000013      -9.74986469E-04
 -0.294999987      -1.05005782E-03
 -0.259999990      -1.44584593E-03
 -0.224999994      -2.75807409E-03
 -0.189999998      -5.93806244E-03
 -0.155000001      -1.23765236E-02
 -0.119999997      -2.39149183E-02
  -8.50000009E-02  -4.25958149E-02
  -5.00000007E-02  -7.01063275E-02
  -1.49999997E-02 -0.106858961
   1.99999996E-02 -0.150703356
   5.49999997E-02 -0.195632622
   9.00000036E-02 -0.231122807
  0.125000000     -0.242745772
  0.159999996     -0.214623258
  0.194999993     -0.133768708
  0.230000004       4.74541867E-03
  0.264999986      0.193615466
  0.300000012      0.411829650
  0.335000008      0.626998484
  0.370000005      0.801454365
  0.405000001      0.900355577
  0.439999998      0.899068832
  0.474999994      0.787771523
  0.509999990      0.572570801
  0.545000017      0.273625284
  0.579999983      -7.83014372E-02
  0.615000010     -0.445391238
  0.649999976     -0.786124766
  0.685000002      -1.05912971
  0.720000029      -1.22808254
  0.754999995      -1.26752603
  0.790000021      -1.16856146
  0.824999988     -0.942427516
  0.860000014     -0.620001316
  0.894999981     -0.246656835
  0.930000007      0.126371905
  0.964999974      0.451773703
   1.00000000      0.694210649
   1.03499997      0.834446669
   1.07000005      0.869196951
   1.10500002      0.808065116
   1.13999999      0.669608772
   1.17499995      0.478172123
   1.21000004      0.261823595
   1.24500000       5.02782613E-02
   1.27999997     -0.128581494
   1.31500006     -0.253665805
   1.35000002     -0.315456122
   1.38499999     -0.318090379
   1.41999996     -0.276983082
   1.45500004     -0.212461233
   1.49000001     -0.142381370
   1.52499998      -7.74795711E-02
   1.55999994      -2.14981660E-02
   1.59500003       2.49257851E-02
   1.63000000       5.99854104E-02
