 -0.959999979       0.00000000
 -0.925000012      -8.92331082E-05
 -0.889999986      -1.04762020E-03
 -0.855000019      -1.16277952E-03
 -0.819999993      -8.51925812E-04
 -0.785000026      -4.32643667E-03
 -0.750000000      -1.11296708E-02
 -0.714999974      -1.83952637E-02
 -0.680000007      -3.09515037E-02
 -0.644999981      -5.54937460E-02
 -0.610000014      -9.13244560E-02
 -0.574999988     -0.135280207
 -0.540000021     -0.182965845
 -0.504999995     -0.220887408
 -0.469999999     -0.227669775
 -0.435000002     -0.179617077
 -0.400000006      -5.25441356E-02
 -0.365000010      0.161530539
 -0.330000013      0.421773851
 -0.294999987      0.619463742
 -0.259999990      0.584860384
 -0.224999994      0.118540779
 -0.189999998     -0.935448945
 -0.155000001      -2.57260180
 -0.119999997      -4.51278973
  -8.50000009E-02  -6.14564133
  -5.00000007E-02  -6.58812523
  -1.49999997E-02  -4.90105867
   1.99999996E-02 -0.458440334
   5.49999997E-02   6.63602257
   9.00000036E-02   15.2550344
  0.125000000       23.2493706
  0.159999996       27.8707485
  0.194999993       26.5977478
  0.230000004       18.1289806
  0.264999986       3.16477489
  0.300000012      -15.3911743
  0.335000008      -33.0272179
  0.370000005      -44.9334450
  0.405000001      -47.5866699
  0.439999998      -39.9906731
  0.474999994      -24.0719910
  0.509999990      -4.05675316
  0.545000017       14.9391088
  0.579999983       28.5436840
  0.615000010       34.3587761
  0.649999976       32.4033051
  0.685000002       24.7398071
  0.720000029       14.5284567
  0.754999995       4.90264797
  0.790000021      -1.95234728
  0.824999988      -5.27845049
  0.860000014      -5.70263290
  0.894999981      -4.72282028
  0.930000007      -3.91628861
  0.964999974      -4.19113111
   1.00000000      -5.40675783
   1.03499997      -6.54877090
   1.07000005      -6.39416838
   1.10500002      -4.32477236
   1.13999999     -0.819857538
   1.17499995       2.68597460
   1.21000004       4.53612661
   1.24500000       3.78386140
   1.27999997      0.784834981
   1.31500006      -2.91974688
   1.35000002      -5.38962793
   1.38499999      -5.30466986
   1.41999996      -2.64577484
   1.45500004       1.33209312
   1.49000001       4.79596138
   1.52499998       6.28737116
   1.55999994       5.39845228
   1.59500003       2.83531570
   1.63000000      -8.90126303E-02
