 -0.800000012       0.00000000
 -0.788999975       0.00000000
 -0.777999997       0.00000000
 -0.767000020       0.00000000
 -0.755999982       1.19482823E-14
 -0.745000005       2.97156132E-14
 -0.734000027       6.66404323E-13
 -0.722999990      -2.75070331E-12
 -0.712000012       6.44784486E-12
 -0.700999975      -1.13554183E-11
 -0.689999998      -7.56096574E-12
 -0.679000020       1.10035765E-10
 -0.667999983      -1.64014455E-10
 -0.657000005      -2.87914220E-10
 -0.646000028       9.53381929E-10
 -0.634999990       1.18146881E-10
 -0.624000013      -2.86612889E-09
 -0.612999976       1.52795887E-09
 -0.601999998       5.65793945E-09
 -0.591000021      -5.93804295E-09
 -0.579999983      -7.14152781E-09
 -0.569000006       1.28283535E-08
 -0.558000028       2.61562083E-09
 -0.546999991      -1.86305709E-08
 -0.536000013       1.33447537E-08
 -0.524999976       1.77261388E-08
 -0.513999999      -3.99744771E-08
 -0.503000021      -6.27099883E-09
 -0.492000014       5.91592482E-08
 -0.481000006      -1.91716136E-08
 -0.469999999      -3.46285525E-08
 -0.458999991       7.15442070E-08
 -0.448000014      -5.26099058E-08
 -0.437000006      -1.59254142E-07
 -0.425999999       1.55799086E-07
 -0.414999992       2.18661185E-07
 -0.404000014      -2.10889610E-07
 -0.393000007      -1.11591895E-07
 -0.381999999       2.70279088E-07
 -0.370999992      -1.40298241E-07
 -0.360000014      -3.45782468E-07
 -0.349000007       3.26426033E-07
 -0.338000000       1.25040970E-07
 -0.326999992      -7.02904060E-07
 -0.316000015       9.45425640E-08
 -0.305000007       1.21314031E-06
 -0.294000000       7.03997216E-07
 -0.282999992       9.17218586E-07
 -0.272000015       2.78977018E-06
 -0.261000007       3.55495172E-06
 -0.250000000       4.05718265E-06
 -0.238999993       7.03238675E-06
 -0.228000000       1.03120037E-05
 -0.216999993       1.26318528E-05
 -0.206000000       1.76910944E-05
 -0.194999993       2.58143064E-05
 -0.184000000       3.42716776E-05
 -0.172999993       4.56470552E-05
 -0.162000000       6.30478244E-05
 -0.150999993       8.45287213E-05
 -0.140000001       1.11084075E-04
 -0.128999993       1.47791521E-04
 -0.118000001       1.95402827E-04
 -0.107000001       2.54107494E-04
  -9.60000008E-02   3.29794188E-04
  -8.50000009E-02   4.27101069E-04
  -7.40000010E-02   5.47624019E-04
  -6.30000010E-02   6.97706069E-04
  -5.20000011E-02   8.85495276E-04
  -4.10000011E-02   1.11541606E-03
  -2.99999993E-02   1.39491423E-03
  -1.89999994E-02   1.73589878E-03
  -8.00000038E-03   2.14684289E-03
   3.00000003E-03   2.63600214E-03
   1.40000004E-02   3.21723311E-03
   2.50000004E-02   3.90270748E-03
   3.59999985E-02   4.70100390E-03
   4.69999984E-02   5.62547147E-03
   5.79999983E-02   6.69031776E-03
   6.89999983E-02   7.90270697E-03
   7.99999982E-02   9.27003846E-03
   9.09999982E-02   1.08027868E-02
  0.101999998       1.25036566E-02
  0.112999998       1.43687595E-02
  0.123999998       1.63963977E-02
  0.135000005       1.85791235E-02
  0.145999998       2.08966956E-02
  0.157000005       2.33262852E-02
  0.167999998       2.58433707E-02
  0.179000005       2.84096580E-02
  0.189999998       3.09771318E-02
  0.201000005       3.34980749E-02
  0.211999997       3.59166600E-02
  0.223000005       3.81643549E-02
  0.233999997       4.01724875E-02
  0.245000005       4.18733470E-02
  0.256000012       4.31902371E-02
  0.266999990       4.40451726E-02
  0.277999997       4.43698131E-02
  0.289000005       4.40979674E-02
  0.300000012       4.31640744E-02
  0.310999990       4.15168665E-02
  0.321999997       3.91190723E-02
  0.333000004       3.59389633E-02
  0.344000012       3.19594368E-02
  0.354999989       2.71856431E-02
  0.365999997       2.16349103E-02
  0.377000004       1.53357014E-02
  0.388000011       8.33808910E-03
  0.398999989       7.08350621E-04
  0.409999996      -7.48047000E-03
  0.421000004      -1.61415562E-02
  0.432000011      -2.51730010E-02
  0.442999989      -3.44702154E-02
  0.453999996      -4.39258590E-02
  0.465000004      -5.34228235E-02
  0.476000011      -6.28429577E-02
  0.486999989      -7.20742792E-02
  0.497999996      -8.10026601E-02
  0.509000003      -8.95116404E-02
  0.519999981      -9.74929854E-02
  0.531000018     -0.104843244
  0.541999996     -0.111455455
  0.552999973     -0.117225848
  0.564000010     -0.122058824
  0.574999988     -0.125858337
  0.586000025     -0.128526419
  0.597000003     -0.129972994
  0.607999980     -0.130115539
  0.619000018     -0.128873125
  0.629999995     -0.126173303
  0.640999973     -0.121961311
  0.652000010     -0.116197422
  0.662999988     -0.108858310
  0.674000025      -9.99478102E-02
  0.685000002      -8.95006806E-02
  0.695999980      -7.75804594E-02
  0.707000017      -6.42855018E-02
  0.717999995      -4.97540496E-02
  0.728999972      -3.41601782E-02
  0.740000010      -1.77129135E-02
  0.750999987      -6.57923112E-04
  0.762000024       1.67297814E-02
  0.773000002       3.41540091E-02
  0.783999979       5.12995310E-02
  0.795000017       6.78411350E-02
  0.805999994       8.34587812E-02
  0.816999972       9.78444666E-02
  0.828000009      0.110707603
  0.838999987      0.121789984
  0.850000024      0.130877197
  0.861000001      0.137800112
  0.871999979      0.142440498
  0.883000016      0.144741207
  0.893999994      0.144706503
  0.904999971      0.142395884
  0.916000009      0.137924880
  0.926999986      0.131465033
  0.938000023      0.123232596
  0.949000001      0.113477334
  0.959999979      0.102479048
  0.971000016       9.05389339E-02
  0.981999993       7.79634640E-02
  0.992999971       6.50554225E-02
   1.00399995       5.21097854E-02
   1.01499999       3.94024253E-02
   1.02600002       2.71791033E-02
   1.03699994       1.56541150E-02
   1.04799998       5.00812242E-03
   1.05900002      -4.61890409E-03
   1.07000005      -1.31281372E-02
   1.08099997      -2.04572696E-02
   1.09200001      -2.65806653E-02
   1.10300004      -3.15088369E-02
   1.11399996      -3.52811441E-02
   1.12500000      -3.79602239E-02
   1.13600004      -3.96306328E-02
   1.14699996      -4.03932668E-02
   1.15799999      -4.03568111E-02
   1.16900003      -3.96350101E-02
   1.17999995      -3.83454785E-02
   1.19099998      -3.66027914E-02
   1.20200002      -3.45134325E-02
   1.21300006      -3.21775824E-02
   1.22399998      -2.96875741E-02
   1.23500001      -2.71220263E-02
   1.24600005      -2.45471392E-02
   1.25699997      -2.20206883E-02
   1.26800001      -1.95883028E-02
   1.27900004      -1.72819551E-02
   1.28999996      -1.51263699E-02
   1.30100000      -1.31393280E-02
   1.31200004      -1.13275424E-02
   1.32299995      -9.69174318E-03
   1.33399999      -8.23141448E-03
   1.34500003      -6.93998626E-03
   1.35599995      -5.80536341E-03
   1.36699998      -4.81738849E-03
   1.37800002      -3.96604184E-03
   1.38900006      -3.23668960E-03
