 -0.800000012       0.00000000
 -0.788999975       0.00000000
 -0.777999997      -3.67235430E-07
 -0.767000020       1.32673233E-06
 -0.755999982       2.35589846E-06
 -0.745000005      -7.04119839E-06
 -0.734000027      -6.92042295E-06
 -0.722999990       1.94519125E-05
 -0.712000012       1.04475002E-05
 -0.700999975      -3.72505892E-05
 -0.689999998      -1.67039684E-06
 -0.679000020       5.36001244E-05
 -0.667999983      -3.12973498E-05
 -0.657000005      -4.61076306E-05
 -0.646000028       1.07033062E-04
 -0.634999990      -4.25686721E-06
 -0.624000013      -2.44505965E-04
 -0.612999976       6.61686936E-05
 -0.601999998       3.98995180E-04
 -0.591000021      -9.04371409E-05
 -0.579999983      -4.44499572E-04
 -0.569000006       1.22351732E-04
 -0.558000028       3.58359655E-04
 -0.546999991      -1.79170544E-04
 -0.536000013      -2.18650966E-04
 -0.524999976       1.69396139E-04
 -0.513999999       4.08824308E-05
 -0.503000021      -8.47916017E-05
 -0.492000014       1.18184129E-04
 -0.481000006      -6.50620268E-06
 -0.469999999      -6.85487321E-05
 -0.458999991       2.66307237E-04
 -0.448000014       2.28509489E-05
 -0.437000006      -4.36267466E-04
 -0.425999999       1.23781880E-04
 -0.414999992       5.91610558E-04
 -0.404000014      -3.21873958E-05
 -0.393000007      -1.22259735E-04
 -0.381999999       6.32228039E-04
 -0.370999992       4.83968208E-04
 -0.360000014       1.59733700E-05
 -0.349000007       7.71303370E-04
 -0.338000000       1.53574185E-03
 -0.326999992       1.25641504E-03
 -0.316000015       1.28143944E-03
 -0.305000007       2.12504994E-03
 -0.294000000       2.97751022E-03
 -0.282999992       3.94835044E-03
 -0.272000015       5.11773117E-03
 -0.261000007       6.08337810E-03
 -0.250000000       7.58594275E-03
 -0.238999993       1.01731932E-02
 -0.228000000       1.28704477E-02
 -0.216999993       1.56804249E-02
 -0.206000000       1.98080521E-02
 -0.194999993       2.48393621E-02
 -0.184000000       2.99339928E-02
 -0.172999993       3.62558737E-02
 -0.162000000       4.46091853E-02
 -0.150999993       5.37625924E-02
 -0.140000001       6.33255392E-02
 -0.128999993       7.45875463E-02
 -0.118000001       8.77810568E-02
 -0.107000001      0.101876006
  -9.60000008E-02  0.116673715
  -8.50000009E-02  0.132550731
  -7.40000010E-02  0.149054930
  -6.30000010E-02  0.165330142
  -5.20000011E-02  0.180885613
  -4.10000011E-02  0.195124075
  -2.99999993E-02  0.206952780
  -1.89999994E-02  0.215043694
  -8.00000038E-03  0.217844144
   3.00000003E-03  0.213612378
   1.40000004E-02  0.200782806
   2.50000004E-02  0.177641630
   3.59999985E-02  0.141724288
   4.69999984E-02   9.04524997E-02
   5.79999983E-02   2.19047833E-02
   6.89999983E-02  -6.57401234E-02
   7.99999982E-02 -0.174524620
   9.09999982E-02 -0.306024432
  0.101999998     -0.461175740
  0.112999998     -0.640468180
  0.123999998     -0.843595922
  0.135000005      -1.06917882
  0.145999998      -1.31456852
  0.157000005      -1.57577229
  0.167999998      -1.84805298
  0.179000005      -2.12549806
  0.189999998      -2.39960647
  0.201000005      -2.66057825
  0.211999997      -2.89921427
  0.223000005      -3.10475659
  0.233999997      -3.26378036
  0.245000005      -3.36388731
  0.256000012      -3.39438272
  0.266999990      -3.34320974
  0.277999997      -3.19889331
  0.289000005      -2.95408583
  0.300000012      -2.60350299
  0.310999990      -2.14276052
  0.321999997      -1.57172275
  0.333000004     -0.895148218
  0.344000012     -0.121040843
  0.354999989      0.738309562
  0.365999997       1.66596031
  0.377000004       2.64170551
  0.388000011       3.64160228
  0.398999989       4.63840771
  0.409999996       5.60384130
  0.421000004       6.50794554
  0.432000011       7.31903458
  0.442999989       8.00830746
  0.453999996       8.55114079
  0.465000004       8.92359161
  0.476000011       9.10473633
  0.486999989       9.08256054
  0.497999996       8.85211182
  0.509000003       8.41150284
  0.519999981       7.76572895
  0.531000018       6.93016481
  0.541999996       5.92587328
  0.552999973       4.77652884
  0.564000010       3.51239347
  0.574999988       2.17049623
  0.586000025      0.788215816
  0.597000003     -0.598427176
  0.607999980      -1.95131457
  0.619000018      -3.23222232
  0.629999995      -4.40830469
  0.640999973      -5.45188332
  0.652000010      -6.33844185
  0.662999988      -7.04901743
  0.674000025      -7.57235003
  0.685000002      -7.90404081
  0.695999980      -8.04557323
  0.707000017      -8.00346851
  0.717999995      -7.78938246
  0.728999972      -7.42154312
  0.740000010      -6.92250633
  0.750999987      -6.31457138
  0.762000024      -5.62125540
  0.773000002      -4.87008238
  0.783999979      -4.08762598
  0.795000017      -3.29560184
  0.805999994      -2.51523924
  0.816999972      -1.76814973
  0.828000009      -1.07026422
  0.838999987     -0.431809068
  0.850000024      0.137334794
  0.861000001      0.629006743
  0.871999979       1.04123592
  0.883000016       1.37585628
  0.893999994       1.63450265
  0.904999971       1.82041395
  0.916000009       1.94056356
  0.926999986       2.00298810
  0.938000023       2.01450849
  0.949000001       1.98252583
  0.959999979       1.91606832
  0.971000016       1.82341957
  0.981999993       1.71079707
  0.992999971       1.58401144
   1.00399995       1.44932616
   1.01499999       1.31208849
   1.02600002       1.17582178
   1.03699994       1.04305434
   1.04799998      0.916452050
   1.05900002      0.798475921
   1.07000005      0.690047204
   1.08099997      0.591003895
   1.09200001      0.501945138
   1.10300004      0.423637241
   1.11399996      0.355218560
   1.12500000      0.295458078
   1.13600004      0.244397074
   1.14699996      0.201715052
   1.15799999      0.165817276
   1.16900003      0.135717377
   1.17999995      0.111195900
   1.19099998       9.11961645E-02
   1.20200002       7.44512081E-02
   1.21300006       6.06919751E-02
   1.22399998       4.96860929E-02
   1.23500001       4.04641517E-02
   1.24600005       3.22212353E-02
   1.25699997       2.49233805E-02
   1.26800001       1.87521055E-02
   1.27900004       1.33887138E-02
   1.28999996       8.30573402E-03
   1.30100000       3.73539003E-03
   1.31200004       1.78713861E-04
   1.32299995      -2.83727306E-03
   1.33399999      -5.65672480E-03
   1.34500003      -7.35811191E-03
   1.35599995      -7.82434270E-03
   1.36699998      -8.34781583E-03
   1.37800002      -8.68406240E-03
   1.38900006      -7.42176687E-03
