 -0.959999979       0.00000000
 -0.925000012       1.42669251E-06
 -0.889999986       1.68209426E-05
 -0.855000019       1.20412706E-05
 -0.819999993      -2.46166182E-05
 -0.785000026       2.23756524E-05
 -0.750000000       1.21447076E-04
 -0.714999974       9.71983973E-05
 -0.680000007       5.01588838E-05
 -0.644999981       9.79904580E-05
 -0.610000014      -7.17020112E-06
 -0.574999988      -4.61537391E-04
 -0.540000021      -1.36765908E-03
 -0.504999995      -3.14557482E-03
 -0.469999999      -6.17207121E-03
 -0.435000002      -1.05691692E-02
 -0.400000006      -1.66386869E-02
 -0.365000010      -2.45360136E-02
 -0.330000013      -3.39609869E-02
 -0.294999987      -4.51820083E-02
 -0.259999990      -5.99004664E-02
 -0.224999994      -8.15562978E-02
 -0.189999998     -0.116132133
 -0.155000001     -0.171653360
 -0.119999997     -0.254637212
  -8.50000009E-02 -0.364823878
  -5.00000007E-02 -0.489094436
  -1.49999997E-02 -0.595759571
   1.99999996E-02 -0.633728504
   5.49999997E-02 -0.540452778
   9.00000036E-02 -0.258680314
  0.125000000      0.240080997
  0.159999996      0.931033611
  0.194999993       1.72099733
  0.230000004       2.45261192
  0.264999986       2.93203807
  0.300000012       2.97768784
  0.335000008       2.47856331
  0.370000005       1.44241631
  0.405000001       1.39173195E-02
  0.439999998      -1.54820359
  0.474999994      -2.93286705
  0.509999990      -3.85959291
  0.545000017      -4.15404558
  0.579999983      -3.78965068
  0.615000010      -2.88264084
  0.649999976      -1.64588666
  0.685000002     -0.322863758
  0.720000029      0.871040642
  0.754999995       1.78178060
  0.790000021       2.32277179
  0.824999988       2.46508074
  0.860000014       2.22742772
  0.894999981       1.67518687
  0.930000007      0.923681974
  0.964999974      0.131939664
   1.00000000     -0.524268687
   1.03499997     -0.899279296
   1.07000005     -0.927971900
   1.10500002     -0.654406726
   1.13999999     -0.219626069
   1.17499995      0.191765264
   1.21000004      0.425907284
   1.24500000      0.421194285
   1.27999997      0.226984203
   1.31500006      -2.91981380E-02
   1.35000002     -0.209286839
   1.38499999     -0.233764485
   1.41999996     -0.117330842
   1.45500004       4.64268290E-02
   1.49000001      0.141048729
   1.52499998       9.31520611E-02
   1.55999994      -8.60951468E-02
   1.59500003     -0.305791676
   1.63000000     -0.443591624
