 -0.959999979       0.00000000
 -0.925000012      -2.07972288E-08
 -0.889999986      -2.60027207E-07
 -0.855000019      -3.92678373E-07
 -0.819999993      -5.60405340E-07
 -0.785000026      -1.85385022E-06
 -0.750000000      -4.07469042E-06
 -0.714999974      -8.79777599E-06
 -0.680000007      -1.76370304E-05
 -0.644999981      -2.66886182E-05
 -0.610000014      -4.27176019E-05
 -0.574999988      -8.38398410E-05
 -0.540000021      -1.41434706E-04
 -0.504999995      -1.94080305E-04
 -0.469999999      -2.57096835E-04
 -0.435000002      -3.38235259E-04
 -0.400000006      -3.95981973E-04
 -0.365000010      -4.27607214E-04
 -0.330000013      -5.17060282E-04
 -0.294999987      -8.08192301E-04
 -0.259999990      -1.64003612E-03
 -0.224999994      -3.75058013E-03
 -0.189999998      -8.29120912E-03
 -0.155000001      -1.67934243E-02
 -0.119999997      -3.11227720E-02
  -8.50000009E-02  -5.30299693E-02
  -5.00000007E-02  -8.32647309E-02
  -1.49999997E-02 -0.120628051
   1.99999996E-02 -0.161065251
   5.49999997E-02 -0.196999252
   9.00000036E-02 -0.217621684
  0.125000000     -0.210543424
  0.159999996     -0.164486825
  0.194999993      -7.25796893E-02
  0.230000004       6.44200891E-02
  0.264999986      0.236208826
  0.300000012      0.423270792
  0.335000008      0.599419057
  0.370000005      0.736019194
  0.405000001      0.807095706
  0.439999998      0.794053674
  0.474999994      0.688917696
  0.509999990      0.495789886
  0.545000017      0.230600387
  0.579999983      -8.07527006E-02
  0.615000010     -0.405483902
  0.649999976     -0.707658768
  0.685000002     -0.952212691
  0.720000029      -1.10898197
  0.754999995      -1.15642512
  0.790000021      -1.08478224
  0.824999988     -0.898439765
  0.860000014     -0.617088616
  0.894999981     -0.274969578
  0.930000007       8.26510638E-02
  0.964999974      0.406160682
   1.00000000      0.650668144
   1.03499997      0.785497010
   1.07000005      0.801316202
   1.10500002      0.712120593
   1.13999999      0.550747633
   1.17499995      0.359152585
   1.21000004      0.176790401
   1.24500000       3.11507881E-02
   1.27999997      -6.64259121E-02
   1.31500006     -0.118874080
   1.35000002     -0.137404501
   1.38499999     -0.134816781
   1.41999996     -0.121128768
   1.45500004     -0.102665588
   1.49000001      -8.36286396E-02
   1.52499998      -6.79577142E-02
   1.55999994      -5.95908463E-02
   1.59500003      -6.07383288E-02
   1.63000000      -6.95417896E-02
