 -0.959999979       0.00000000
 -0.925000012       0.00000000
 -0.889999986      -1.11111120E-12
 -0.855000019      -9.46223535E-20
 -0.819999993      -6.88888946E-11
 -0.785000026      -4.22222292E-11
 -0.750000000       1.62222222E-10
 -0.714999974      -3.35555611E-10
 -0.680000007       2.97111113E-09
 -0.644999981      -1.65111103E-09
 -0.610000014      -8.76222206E-09
 -0.574999988      -4.77999951E-09
 -0.540000021      -1.98555554E-08
 -0.504999995       3.47577753E-08
 -0.469999999       6.26333261E-08
 -0.435000002      -2.49755665E-08
 -0.400000006       2.39488802E-08
 -0.365000010      -1.84264465E-07
 -0.330000013       2.78811086E-07
 -0.294999987      -6.82111789E-08
 -0.259999990      -7.69082362E-07
 -0.224999994       1.07866879E-06
 -0.189999998       5.68944301E-07
 -0.155000001      -1.72481577E-06
 -0.119999997      -2.36602361E-07
  -8.50000009E-02   1.25161102E-06
  -5.00000007E-02   3.77797647E-07
  -1.49999997E-02  -3.32175716E-07
   1.99999996E-02  -8.60104649E-07
   5.49999997E-02   2.13957676E-07
   9.00000036E-02   7.23682149E-07
  0.125000000      -1.35978633E-08
  0.159999996      -5.23322342E-07
  0.194999993      -6.96264635E-07
  0.230000004       8.32908711E-07
  0.264999986       3.59593059E-07
  0.300000012      -9.87535941E-07
  0.335000008       3.04979721E-07
  0.370000005       1.63617983E-06
  0.405000001       1.71127317E-06
  0.439999998       3.64144171E-07
  0.474999994      -2.94906499E-06
  0.509999990      -4.11414931E-06
  0.545000017      -7.27625107E-08
  0.579999983       2.43945078E-06
  0.615000010       3.20403751E-06
  0.649999976       3.26775307E-06
  0.685000002      -3.71365172E-06
  0.720000029      -7.48197181E-06
  0.754999995       1.62025094E-06
  0.790000021       5.26114081E-06
  0.824999988      -5.64281549E-07
  0.860000014       9.10785616E-08
  0.894999981       1.68447528E-07
  0.930000007      -1.98650355E-06
  0.964999974       1.97068766E-06
   1.00000000       1.64300775E-06
   1.03499997      -2.50760581E-06
   1.07000005      -1.07855692E-06
   1.10500002      -5.55179156E-07
   1.13999999      -5.99552607E-07
   1.17499995       2.97193196E-06
   1.21000004       1.57246507E-06
   1.24500000      -1.48133063E-06
   1.27999997       9.99025019E-07
   1.31500006      -1.03077070E-06
   1.35000002      -3.34387278E-06
   1.38499999       2.13680300E-06
   1.41999996       1.49282073E-06
   1.45500004      -1.93416599E-06
   1.49000001       3.56130090E-06
   1.52499998       1.72720331E-06
   1.55999994      -6.30223713E-06
   1.59500003      -9.68476684E-07
   1.63000000       3.81929203E-06
