 -0.959999979       0.00000000
 -0.925000012       4.04872340E-19
 -0.889999986       4.24065123E-12
 -0.855000019      -1.31459850E-12
 -0.819999993      -1.76794673E-11
 -0.785000026      -2.49290644E-10
 -0.750000000      -3.74729830E-10
 -0.714999974       5.50257895E-10
 -0.680000007       1.66390990E-09
 -0.644999981       1.12937792E-09
 -0.610000014       1.13254428E-09
 -0.574999988       6.25022922E-10
 -0.540000021       5.45231828E-12
 -0.504999995       6.07985218E-09
 -0.469999999       1.52127786E-08
 -0.435000002       2.13735571E-08
 -0.400000006       2.92904168E-09
 -0.365000010       1.87043568E-07
 -0.330000013      -3.33306730E-07
 -0.294999987      -4.34411334E-07
 -0.259999990       6.12357724E-07
 -0.224999994       4.73043855E-07
 -0.189999998      -4.27914671E-07
 -0.155000001      -3.39259998E-07
 -0.119999997       3.50738759E-07
  -8.50000009E-02   6.60884780E-07
  -5.00000007E-02  -8.48404156E-08
  -1.49999997E-02  -8.94515665E-07
   1.99999996E-02  -6.20610592E-07
   5.49999997E-02   3.93879361E-07
   9.00000036E-02   9.73344982E-07
  0.125000000      -3.25933200E-08
  0.159999996      -8.99178303E-07
  0.194999993      -5.54706332E-07
  0.230000004      -2.43441832E-07
  0.264999986       3.14490251E-07
  0.300000012       1.26125610E-06
  0.335000008       1.11921997E-06
  0.370000005      -1.19653635E-07
  0.405000001      -1.35871016E-06
  0.439999998      -1.54493034E-06
  0.474999994      -3.97625115E-07
  0.509999990       9.42206668E-07
  0.545000017       1.49152152E-06
  0.579999983       6.55605334E-07
  0.615000010      -1.48774700E-06
  0.649999976      -2.54986662E-06
  0.685000002      -2.26145680E-08
  0.720000029       3.53234896E-06
  0.754999995       2.61909508E-06
  0.790000021      -2.35411767E-06
  0.824999988      -3.98169641E-06
  0.860000014       6.57735313E-07
  0.894999981       4.08869801E-06
  0.930000007       1.36674748E-06
  0.964999974      -2.42352917E-06
   1.00000000      -2.46675563E-06
   1.03499997      -3.42093870E-07
   1.07000005       1.45273702E-06
   1.10500002       2.08158576E-06
   1.13999999       7.83827261E-07
   1.17499995      -1.52862742E-06
   1.21000004      -2.33032051E-06
   1.24500000      -7.91522041E-07
   1.27999997       1.62804326E-06
   1.31500006       2.34890149E-06
   1.35000002       5.85713451E-07
   1.38499999      -7.48624814E-07
   1.41999996      -2.28541865E-07
   1.45500004      -4.31424240E-07
   1.49000001      -1.37659845E-06
   1.52499998      -2.74221378E-07
   1.55999994       1.21292112E-06
   1.59500003       4.24047983E-07
   1.63000000      -3.12549986E-07
