 -0.800000012       0.00000000
 -0.788999975       0.00000000
 -0.777999997       0.00000000
 -0.767000020       0.00000000
 -0.755999982       4.97978076E-28
 -0.745000005      -8.05677278E-27
 -0.734000027      -4.97738253E-19
 -0.722999990      -3.66483239E-18
 -0.712000012       1.07306328E-17
 -0.700999975       9.03306623E-18
 -0.689999998      -1.33918490E-16
 -0.679000020       1.90544191E-16
 -0.667999983       5.48675756E-16
 -0.657000005      -2.63932015E-15
 -0.646000028       6.49400838E-17
 -0.634999990       7.34377904E-15
 -0.624000013      -5.04335148E-15
 -0.612999976      -1.12390422E-14
 -0.601999998       1.31322421E-14
 -0.591000021       1.68055212E-15
 -0.579999983      -1.65914950E-14
 -0.569000006       3.98481297E-14
 -0.558000028      -9.82198992E-15
 -0.546999991      -1.04667794E-13
 -0.536000013       1.20755985E-13
 -0.524999976       1.80362127E-13
 -0.513999999      -3.09373431E-13
 -0.503000021      -1.84187599E-13
 -0.492000014       5.13629829E-13
 -0.481000006       1.19955762E-13
 -0.469999999      -5.89572662E-13
 -0.458999991      -2.99340088E-13
 -0.448000014       4.30252595E-13
 -0.437000006       1.38743997E-12
 -0.425999999      -3.05606587E-13
 -0.414999992      -4.34699932E-12
 -0.404000014       4.02556515E-13
 -0.393000007       9.58309820E-12
 -0.381999999      -5.83946520E-13
 -0.370999992      -1.59357614E-11
 -0.360000014      -1.73307744E-12
 -0.349000007       1.91091466E-11
 -0.338000000       9.71592164E-12
 -0.326999992      -1.58357771E-11
 -0.316000015      -2.48498357E-11
 -0.305000007       8.16942347E-12
 -0.294000000       4.15995710E-11
 -0.282999992      -4.06145863E-12
 -0.272000015      -4.56643820E-11
 -0.261000007       1.11272562E-11
 -0.250000000       1.65635214E-11
 -0.238999993      -4.58781242E-11
 -0.228000000       5.18317264E-11
 -0.216999993       1.43189322E-10
 -0.206000000      -1.03410461E-10
 -0.194999993      -3.02793984E-10
 -0.184000000       9.80348303E-11
 -0.172999993       5.03805164E-10
 -0.162000000      -9.52429802E-11
 -0.150999993      -8.12667877E-10
 -0.140000001       1.30510547E-10
 -0.128999993       1.30762290E-09
 -0.118000001      -1.29398797E-10
 -0.107000001      -1.66234948E-09
  -9.60000008E-02   3.74974440E-10
  -8.50000009E-02   1.77580151E-09
  -7.40000010E-02  -1.20310650E-09
  -6.30000010E-02  -2.07687467E-09
  -5.20000011E-02   1.94693106E-09
  -4.10000011E-02   2.69112999E-09
  -2.99999993E-02  -1.55970215E-09
  -1.89999994E-02  -2.72940182E-09
  -8.00000038E-03   5.12067000E-10
   3.00000003E-03   2.95154168E-09
   1.40000004E-02   1.27714339E-09
   2.50000004E-02  -1.94703853E-09
   3.59999985E-02  -5.64503944E-10
   4.69999984E-02   3.34497896E-09
   5.79999983E-02  -1.31129649E-10
   6.89999983E-02  -4.11929735E-09
   7.99999982E-02   1.21190424E-09
   9.09999982E-02   1.64493008E-09
  0.101999998      -3.98780653E-09
  0.112999998       1.70372838E-09
  0.123999998       7.40935802E-09
  0.135000005      -3.19374172E-09
  0.145999998      -8.07026801E-09
  0.157000005       3.57307872E-09
  0.167999998       7.78320075E-09
  0.179000005       1.88668769E-09
  0.189999998       3.32729044E-09
  0.201000005       5.00886310E-09
  0.211999997      -2.86404611E-09
  0.223000005      -5.84188253E-09
  0.233999997       8.46028247E-10
  0.245000005       4.52153559E-09
  0.256000012       2.08318029E-09
  0.266999990      -3.71139675E-09
  0.277999997      -6.45119691E-09
  0.289000005       6.60194877E-09
  0.300000012       2.13579163E-08
  0.310999990       1.11736140E-08
  0.321999997      -9.15557763E-09
  0.333000004      -1.64632699E-08
  0.344000012      -1.31402356E-08
  0.354999989       7.32164018E-09
  0.365999997       3.21332791E-08
  0.377000004       1.22907808E-08
  0.388000011      -1.93691871E-08
  0.398999989       1.07558300E-08
  0.409999996       1.63354681E-08
  0.421000004      -2.09367101E-08
  0.432000011      -9.85464776E-09
  0.442999989       2.96918667E-08
  0.453999996       2.54270915E-08
  0.465000004      -2.08376214E-08
  0.476000011      -4.87296283E-08
  0.486999989      -5.54487052E-08
  0.497999996       6.97360969E-09
  0.509000003       6.17341271E-08
  0.519999981       2.62471989E-10
  0.531000018      -2.92622655E-08
  0.541999996       1.23389929E-08
  0.552999973      -2.45513458E-08
  0.564000010      -8.74508146E-08
  0.574999988       1.50884709E-08
  0.586000025       9.63786491E-08
  0.597000003      -1.00192512E-08
  0.607999980      -4.42648158E-08
  0.619000018      -1.79063431E-08
  0.629999995      -3.28634826E-08
  0.640999973       1.86495495E-08
  0.652000010       8.02228968E-08
  0.662999988      -4.18544523E-08
  0.674000025      -8.17540169E-08
  0.685000002      -5.31851585E-09
  0.695999980      -4.05732052E-08
  0.707000017      -1.52701158E-08
  0.717999995       9.99153897E-08
  0.728999972       6.61938913E-08
  0.740000010      -6.73509675E-08
  0.750999987      -1.26823512E-08
  0.762000024       6.50167777E-08
  0.773000002       2.83384534E-08
  0.783999979       1.59381788E-08
  0.795000017       2.64821711E-08
  0.805999994       3.81500742E-09
  0.816999972       1.31097764E-08
  0.828000009       2.65485145E-08
  0.838999987      -7.29249283E-09
  0.850000024       1.24624533E-08
  0.861000001      -2.07660502E-08
  0.871999979      -1.16243569E-07
  0.883000016      -8.60317400E-08
  0.893999994      -1.17907089E-08
  0.904999971      -4.10475387E-08
  0.916000009      -3.57510821E-08
  0.926999986       1.01738600E-07
  0.938000023       1.50214660E-07
  0.949000001       1.59104747E-08
  0.959999979      -4.41084964E-08
  0.971000016       4.48998030E-08
  0.981999993       5.33388302E-08
  0.992999971      -5.09243137E-08
   1.00399995      -7.37084491E-08
   1.01499999       5.17450438E-08
   1.02600002       4.85927600E-08
   1.03699994      -7.02900635E-08
   1.04799998       1.76466119E-09
   1.05900002       1.27276351E-07
   1.07000005      -3.98435311E-08
   1.08099997      -1.96464313E-07
   1.09200001       1.44001255E-08
   1.10300004       1.32261547E-07
   1.11399996      -6.42353157E-08
   1.12500000      -6.41520970E-08
   1.13600004       1.36520512E-07
   1.14699996       6.50838885E-08
   1.15799999      -1.11984512E-07
   1.16900003      -4.11250483E-08
   1.17999995       1.42519676E-08
   1.19099998      -7.72688651E-08
   1.20200002      -7.68803687E-08
   1.21300006       2.46970071E-08
   1.22399998       5.46782246E-08
   1.23500001       9.91635218E-09
   1.24600005       1.34340250E-09
   1.25699997       3.63293147E-08
   1.26800001       4.29172466E-08
   1.27900004       2.09590767E-09
   1.28999996      -1.79414474E-08
   1.30100000      -2.13537970E-08
   1.31200004      -5.95159584E-08
   1.32299995      -3.15155120E-08
   1.33399999       6.61027215E-08
   1.34500003       2.79679480E-08
   1.35599995      -1.20665050E-07
   1.36699998      -9.26934831E-08
   1.37800002       7.72984237E-08
   1.38900006       1.01916747E-07
