 -0.800000012       0.00000000
 -0.788999975       0.00000000
 -0.777999997       0.00000000
 -0.767000020       0.00000000
 -0.755999982       1.76516342E-28
 -0.745000005      -7.27196555E-14
 -0.734000027      -1.59100966E-12
 -0.722999990       1.20139870E-11
 -0.712000012      -3.03572549E-11
 -0.700999975      -4.43462237E-12
 -0.689999998       1.71164902E-10
 -0.679000020      -2.42435544E-10
 -0.667999983      -3.38807704E-10
 -0.657000005       1.16123344E-09
 -0.646000028      -8.38452710E-11
 -0.634999990      -2.98083558E-09
 -0.624000013       2.29965469E-09
 -0.612999976       4.84670792E-09
 -0.601999998      -7.01557568E-09
 -0.591000021      -4.04980893E-09
 -0.579999983       1.19581447E-08
 -0.569000006      -3.95869915E-09
 -0.558000028      -9.75221592E-09
 -0.546999991       2.43877540E-08
 -0.536000013      -9.52033918E-09
 -0.524999976      -5.96991114E-08
 -0.513999999       4.74520974E-08
 -0.503000021       1.00073080E-07
 -0.492000014      -8.56605666E-08
 -0.481000006      -1.08214692E-07
 -0.469999999       9.61603774E-08
 -0.458999991       2.18258531E-08
 -0.448000014      -8.34217815E-08
 -0.437000006       1.83430132E-07
 -0.425999999       9.89262219E-08
 -0.414999992      -3.95121020E-07
 -0.404000014      -1.41935033E-07
 -0.393000007       3.99927359E-07
 -0.381999999       4.62806184E-08
 -0.370999992      -1.58003047E-07
 -0.360000014       3.18179730E-07
 -0.349000007      -9.66187770E-08
 -0.338000000      -6.86189992E-07
 -0.326999992       3.38982431E-07
 -0.316000015       8.33654951E-07
 -0.305000007      -6.70936572E-07
 -0.294000000      -1.09397843E-06
 -0.282999992      -6.30457393E-08
 -0.272000015      -7.01575573E-07
 -0.261000007      -1.67863175E-06
 -0.250000000      -7.67520362E-07
 -0.238999993      -1.08774964E-06
 -0.228000000      -3.54284066E-06
 -0.216999993      -4.22418043E-06
 -0.206000000      -3.80073539E-06
 -0.194999993      -5.75112745E-06
 -0.184000000      -8.43893577E-06
 -0.172999993      -1.04619166E-05
 -0.162000000      -1.42166655E-05
 -0.150999993      -1.91339641E-05
 -0.140000001      -2.36423912E-05
 -0.128999993      -3.05178255E-05
 -0.118000001      -4.04834573E-05
 -0.107000001      -5.07287477E-05
  -9.60000008E-02  -6.30488721E-05
  -8.50000009E-02  -8.05451418E-05
  -7.40000010E-02  -1.00803103E-04
  -6.30000010E-02  -1.22748315E-04
  -5.20000011E-02  -1.49771819E-04
  -4.10000011E-02  -1.81903335E-04
  -2.99999993E-02  -2.17111505E-04
  -1.89999994E-02  -2.57315114E-04
  -8.00000038E-03  -3.03397654E-04
   3.00000003E-03  -3.52142932E-04
   1.40000004E-02  -4.02409962E-04
   2.50000004E-02  -4.55164292E-04
   3.59999985E-02  -5.08042285E-04
   4.69999984E-02  -5.56602783E-04
   5.79999983E-02  -5.97451173E-04
   6.89999983E-02  -6.26755529E-04
   7.99999982E-02  -6.38326397E-04
   9.09999982E-02  -6.23714936E-04
  0.101999998      -5.73941681E-04
  0.112999998      -4.80557908E-04
  0.123999998      -3.33002681E-04
  0.135000005      -1.17902622E-04
  0.145999998       1.76692367E-04
  0.157000005       5.61827677E-04
  0.167999998       1.05152139E-03
  0.179000005       1.65860576E-03
  0.189999998       2.39060191E-03
  0.201000005       3.25437170E-03
  0.211999997       4.25599143E-03
  0.223000005       5.39349252E-03
  0.233999997       6.65717386E-03
  0.245000005       8.03267583E-03
  0.256000012       9.49631259E-03
  0.266999990       1.10121453E-02
  0.277999997       1.25337681E-02
  0.289000005       1.40016889E-02
  0.300000012       1.53412307E-02
  0.310999990       1.64655261E-02
  0.321999997       1.72743741E-02
  0.333000004       1.76511761E-02
  0.344000012       1.74668841E-02
  0.354999989       1.65834241E-02
  0.365999997       1.48525350E-02
  0.377000004       1.21201826E-02
  0.388000011       8.23404267E-03
  0.398999989       3.04479175E-03
  0.409999996      -3.59090627E-03
  0.421000004      -1.17991315E-02
  0.432000011      -2.16795076E-02
  0.442999989      -3.33022065E-02
  0.453999996      -4.67016697E-02
  0.465000004      -6.18656091E-02
  0.476000011      -7.87270218E-02
  0.486999989      -9.71598104E-02
  0.497999996     -0.116972454
  0.509000003     -0.137901515
  0.519999981     -0.159610748
  0.531000018     -0.181692898
  0.541999996     -0.203669459
  0.552999973     -0.224994481
  0.564000010     -0.245065227
  0.574999988     -0.263234288
  0.586000025     -0.278822631
  0.597000003     -0.291138738
  0.607999980     -0.299499691
  0.619000018     -0.303251356
  0.629999995     -0.301795065
  0.640999973     -0.294615895
  0.652000010     -0.281305581
  0.662999988     -0.261584044
  0.674000025     -0.235324621
  0.685000002     -0.202571705
  0.695999980     -0.163550600
  0.707000017     -0.118677363
  0.717999995      -6.85624108E-02
  0.728999972      -1.40008964E-02
  0.740000010       4.40421104E-02
  0.750999987      0.104449429
  0.762000024      0.165980563
  0.773000002      0.227308065
  0.783999979      0.287054390
  0.795000017      0.343833566
  0.805999994      0.396298051
  0.816999972      0.443182766
  0.828000009      0.483347088
  0.838999987      0.515815854
  0.850000024      0.539812803
  0.861000001      0.554784238
  0.871999979      0.560419142
  0.883000016      0.556662977
  0.893999994      0.543713629
  0.904999971      0.522008657
  0.916000009      0.492211521
  0.926999986      0.455188692
  0.938000023      0.411972374
  0.949000001      0.363720268
  0.959999979      0.311678201
  0.971000016      0.257137686
  0.981999993      0.201389059
  0.992999971      0.145682380
   1.00399995       9.11945850E-02
   1.01499999       3.89952548E-02
   1.02600002      -9.98356380E-03
   1.03699994      -5.49635366E-02
   1.04799998      -9.53285992E-02
   1.05900002     -0.130633712
   1.07000005     -0.160607457
   1.08099997     -0.185141832
   1.09200001     -0.204276204
   1.10300004     -0.218182996
   1.11399996     -0.227151230
   1.12500000     -0.231564045
   1.13600004     -0.231874183
   1.14699996     -0.228582561
   1.15799999     -0.222218722
   1.16900003     -0.213320658
   1.17999995     -0.202416107
   1.19099998     -0.190007567
   1.20200002     -0.176562309
   1.21300006     -0.162504926
   1.22399998     -0.148209989
   1.23500001     -0.133997262
   1.24600005     -0.120132506
   1.25699997     -0.106829636
   1.26800001      -9.42510366E-02
   1.27900004      -8.25115144E-02
   1.28999996      -7.16862306E-02
   1.30100000      -6.18151575E-02
   1.31200004      -5.29062934E-02
   1.32299995      -4.49437723E-02
   1.33399999      -3.78950015E-02
   1.34500003      -3.17119695E-02
   1.35599995      -2.63342243E-02
   1.36699998      -2.16958430E-02
   1.37800002      -1.77290756E-02
   1.38900006      -1.43653331E-02
