 -0.959999979       0.00000000
 -0.925000012       1.56157921E-06
 -0.889999986       2.14565116E-05
 -0.855000019       6.01385073E-05
 -0.819999993       9.53958443E-05
 -0.785000026       1.86017161E-04
 -0.750000000       4.56499110E-04
 -0.714999974       9.73185350E-04
 -0.680000007       1.83675392E-03
 -0.644999981       3.34954634E-03
 -0.610000014       5.91886416E-03
 -0.574999988       9.88444965E-03
 -0.540000021       1.54537503E-02
 -0.504999995       2.25211643E-02
 -0.469999999       3.03709246E-02
 -0.435000002       3.74984667E-02
 -0.400000006       4.15613130E-02
 -0.365000010       3.96539643E-02
 -0.330000013       2.94462200E-02
 -0.294999987       1.12245968E-02
 -0.259999990      -9.85135883E-03
 -0.224999994      -2.21606698E-02
 -0.189999998      -7.86443055E-03
 -0.155000001       5.35262264E-02
 -0.119999997      0.177520171
  -8.50000009E-02  0.364042729
  -5.00000007E-02  0.586884201
  -1.49999997E-02  0.787944973
   1.99999996E-02  0.881735682
   5.49999997E-02  0.773627877
   9.00000036E-02  0.390534401
  0.125000000     -0.283292532
  0.159999996      -1.17789447
  0.194999993      -2.13109303
  0.230000004      -2.91381097
  0.264999986      -3.28645205
  0.300000012      -3.07248998
  0.335000008      -2.22516727
  0.370000005     -0.860854566
  0.405000001      0.758247197
  0.439999998       2.29084969
  0.474999994       3.41194534
  0.509999990       3.90419769
  0.545000017       3.71375751
  0.579999983       2.95281053
  0.615000010       1.85201824
  0.649999976      0.683680296
  0.685000002     -0.316325933
  0.720000029      -1.00352025
  0.754999995      -1.34356320
  0.790000021      -1.39519203
  0.824999988      -1.26865315
  0.860000014      -1.07648635
  0.894999981     -0.894042313
  0.930000007     -0.742856801
  0.964999974     -0.600975633
   1.00000000     -0.433012664
   1.03499997     -0.223791540
   1.07000005       2.70964368E-03
   1.10500002      0.190291330
   1.13999999      0.280322999
   1.17499995      0.247666359
   1.21000004      0.121278979
   1.24500000      -2.43218970E-02
   1.27999997     -0.104274273
   1.31500006      -6.69125244E-02
   1.35000002       7.85021186E-02
   1.38499999      0.265652120
   1.41999996      0.404784292
   1.45500004      0.427773356
   1.49000001      0.320532858
   1.52499998      0.126575664
   1.55999994      -7.79253691E-02
   1.59500003     -0.222016931
   1.63000000     -0.270079017
