 -0.800000012       0.00000000
 -0.788999975       0.00000000
 -0.777999997       0.00000000
 -0.767000020       0.00000000
 -0.755999982       2.83497538E-28
 -0.745000005      -2.87178891E-13
 -0.734000027       1.37521700E-12
 -0.722999990      -5.88009372E-12
 -0.712000012       1.16918662E-11
 -0.700999975       5.23368805E-12
 -0.689999998      -6.66817990E-11
 -0.679000020       9.22594987E-11
 -0.667999983       9.21085985E-11
 -0.657000005      -4.20618068E-10
 -0.646000028       2.29864294E-10
 -0.634999990       9.32484867E-10
 -0.624000013      -1.34599509E-09
 -0.612999976      -1.22790489E-09
 -0.601999998       3.06078141E-09
 -0.591000021       1.02834163E-09
 -0.579999983      -3.06849279E-09
 -0.569000006      -1.60114411E-09
 -0.558000028      -4.71425210E-09
 -0.546999991       6.66490418E-09
 -0.536000013       3.03552596E-08
 -0.524999976      -1.94352481E-08
 -0.513999999      -8.32556069E-08
 -0.503000021       3.38748869E-08
 -0.492000014       1.57691730E-07
 -0.481000006      -2.83835657E-08
 -0.469999999      -2.10878682E-07
 -0.458999991      -1.82446218E-08
 -0.448000014       1.57168088E-07
 -0.437000006       7.72820172E-08
 -0.425999999       7.30835197E-08
 -0.414999992      -3.66819854E-08
 -0.404000014      -3.98786113E-07
 -0.393000007      -1.91836946E-07
 -0.381999999       5.43411943E-07
 -0.370999992       4.30360018E-07
 -0.360000014      -3.78096559E-07
 -0.349000007      -3.80863867E-07
 -0.338000000       2.37425354E-07
 -0.326999992       3.80023437E-07
 -0.316000015       5.32032232E-08
 -0.305000007      -6.07476238E-07
 -0.294000000      -1.37595578E-06
 -0.282999992      -1.45152899E-06
 -0.272000015      -1.63811171E-06
 -0.261000007      -3.54163762E-06
 -0.250000000      -5.76829325E-06
 -0.238999993      -6.57747569E-06
 -0.228000000      -8.27429722E-06
 -0.216999993      -1.30332319E-05
 -0.206000000      -1.92130392E-05
 -0.194999993      -2.58545497E-05
 -0.184000000      -3.44634791E-05
 -0.172999993      -4.58692630E-05
 -0.162000000      -6.13790253E-05
 -0.150999993      -8.37669868E-05
 -0.140000001      -1.13360213E-04
 -0.128999993      -1.49127431E-04
 -0.118000001      -1.94144726E-04
 -0.107000001      -2.53601989E-04
  -9.60000008E-02  -3.30318784E-04
  -8.50000009E-02  -4.27040533E-04
  -7.40000010E-02  -5.48340613E-04
  -6.30000010E-02  -6.98867720E-04
  -5.20000011E-02  -8.84804816E-04
  -4.10000011E-02  -1.11487124E-03
  -2.99999993E-02  -1.39663310E-03
  -1.89999994E-02  -1.73688598E-03
  -8.00000038E-03  -2.14606104E-03
   3.00000003E-03  -2.63637630E-03
   1.40000004E-02  -3.21824267E-03
   2.50000004E-02  -3.90264578E-03
   3.59999985E-02  -4.70192451E-03
   4.69999984E-02  -5.62699651E-03
   5.79999983E-02  -6.68911031E-03
   6.89999983E-02  -7.90100917E-03
   7.99999982E-02  -9.27152485E-03
   9.09999982E-02  -1.08042369E-02
  0.101999998      -1.25024179E-02
  0.112999998      -1.43679073E-02
  0.123999998      -1.63961705E-02
  0.135000005      -1.85769591E-02
  0.145999998      -2.08948497E-02
  0.157000005      -2.33264863E-02
  0.167999998      -2.58417092E-02
  0.179000005      -2.84054391E-02
  0.189999998      -3.09743807E-02
  0.201000005      -3.34959589E-02
  0.211999997      -3.59120555E-02
  0.223000005      -3.81595083E-02
  0.233999997      -4.01688963E-02
  0.245000005      -4.18676324E-02
  0.256000012      -4.31824662E-02
  0.266999990      -4.40388881E-02
  0.277999997      -4.43635806E-02
  0.289000005      -4.40891236E-02
  0.300000012      -4.31553870E-02
  0.310999990      -4.15100120E-02
  0.321999997      -3.91115323E-02
  0.333000004      -3.59317623E-02
  0.344000012      -3.19559276E-02
  0.354999989      -2.71841157E-02
  0.365999997      -2.16336381E-02
  0.377000004      -1.53382998E-02
  0.388000011      -8.34616553E-03
  0.398999989      -7.19735457E-04
  0.409999996       7.46425148E-03
  0.421000004       1.61181036E-02
  0.432000011       2.51451097E-02
  0.442999989       3.44394147E-02
  0.453999996       4.38892320E-02
  0.465000004       5.33810295E-02
  0.476000011       6.27999231E-02
  0.486999989       7.20302165E-02
  0.497999996       8.09580684E-02
  0.509000003       8.94715339E-02
  0.519999981       9.74600539E-02
  0.531000018      0.104816712
  0.541999996      0.111438453
  0.552999973      0.117223345
  0.564000010      0.122070923
  0.574999988      0.125883982
  0.586000025      0.128567934
  0.597000003      0.130031019
  0.607999980      0.130186602
  0.619000018      0.128954738
  0.629999995      0.126264259
  0.640999973      0.122056872
  0.652000010      0.116291165
  0.662999988      0.108946510
  0.674000025      0.100027196
  0.685000002       8.95658657E-02
  0.695999980       7.76270404E-02
  0.707000017       6.43109232E-02
  0.717999995       4.97555360E-02
  0.728999972       3.41366269E-02
  0.740000010       1.76665187E-02
  0.750999987       5.91112475E-04
  0.762000024      -1.68145522E-02
  0.773000002      -3.42514552E-02
  0.783999979      -5.14037535E-02
  0.795000017      -6.79478049E-02
  0.805999994      -8.35616887E-02
  0.816999972      -9.79356095E-02
  0.828000009     -0.110782333
  0.838999987     -0.121846043
  0.850000024     -0.130910844
  0.861000001     -0.137808830
  0.871999979     -0.142425925
  0.883000016     -0.144705832
  0.893999994     -0.144651994
  0.904999971     -0.142326653
  0.916000009     -0.137847826
  0.926999986     -0.131384909
  0.938000023     -0.123152643
  0.949000001     -0.113403626
  0.959999979     -0.102418520
  0.971000016      -9.04947668E-02
  0.981999993      -7.79368430E-02
  0.992999971      -6.50483295E-02
   1.00399995      -5.21222651E-02
   1.01499999      -3.94317098E-02
   1.02600002      -2.72235647E-02
   1.03699994      -1.57127269E-02
   1.04799998      -5.07660257E-03
   1.05900002       4.54585953E-03
   1.07000005       1.30537516E-02
   1.08099997       2.03853752E-02
   1.09200001       2.65164450E-02
   1.10300004       3.14554311E-02
   1.11399996       3.52406278E-02
   1.12500000       3.79360467E-02
   1.13600004       3.96247730E-02
   1.14699996       4.04047146E-02
   1.15799999       4.03854623E-02
   1.16900003       3.96819822E-02
   1.17999995       3.84093150E-02
   1.19099998       3.66804451E-02
   1.20200002       3.46028283E-02
   1.21300006       3.22749577E-02
   1.22399998       2.97865476E-02
   1.23500001       2.72180289E-02
   1.24600005       2.46376134E-02
   1.25699997       2.21008509E-02
   1.26800001       1.96525753E-02
   1.27900004       1.73274390E-02
   1.28999996       1.51503524E-02
   1.30100000       1.31382812E-02
   1.31200004       1.13010174E-02
   1.32299995       9.64168925E-03
   1.33399999       8.15878250E-03
   1.34500003       6.84729824E-03
   1.35599995       5.69847878E-03
   1.36699998       4.70115477E-03
   1.37800002       3.84366536E-03
   1.38900006       3.11355758E-03
