 -0.800000012       0.00000000
 -0.788999975       0.00000000
 -0.777999997       0.00000000
 -0.767000020       0.00000000
 -0.755999982       3.20105742E-16
 -0.745000005       5.15170150E-16
 -0.734000027       1.21039992E-15
 -0.722999990       5.90695239E-15
 -0.712000012      -3.34110452E-14
 -0.700999975       9.29806955E-15
 -0.689999998       1.00023058E-13
 -0.679000020      -1.25356445E-13
 -0.667999983      -1.03654261E-13
 -0.657000005       3.98206641E-13
 -0.646000028      -1.22340230E-14
 -0.634999990      -9.34843999E-13
 -0.624000013       7.83418957E-13
 -0.612999976       1.23726387E-12
 -0.601999998      -1.67000224E-12
 -0.591000021      -1.15213611E-12
 -0.579999983       1.92657674E-12
 -0.569000006       2.44444309E-12
 -0.558000028      -4.66855253E-14
 -0.546999991      -7.46744333E-12
 -0.536000013      -2.64415399E-12
 -0.524999976       1.49193470E-11
 -0.513999999       5.08179046E-12
 -0.503000021      -2.48264014E-11
 -0.492000014      -4.79808424E-12
 -0.481000006       3.48927311E-11
 -0.469999999       5.37666699E-12
 -0.458999991      -4.66748480E-11
 -0.448000014      -3.73940844E-11
 -0.437000006       6.84306015E-11
 -0.425999999       1.36802902E-10
 -0.414999992      -1.01102057E-10
 -0.404000014      -2.68455674E-10
 -0.393000007       1.40957357E-10
 -0.381999999       3.50368262E-10
 -0.370999992      -2.62124517E-10
 -0.360000014      -2.31548739E-10
 -0.349000007       4.32580471E-10
 -0.338000000      -1.48117837E-10
 -0.326999992      -5.26317212E-10
 -0.316000015       5.37240030E-10
 -0.305000007       2.90668045E-10
 -0.294000000      -4.23258401E-10
 -0.282999992       4.95098795E-10
 -0.272000015       4.28908714E-11
 -0.261000007      -7.82176324E-10
 -0.250000000       7.23126892E-10
 -0.238999993      -4.14363405E-10
 -0.228000000      -2.28937758E-09
 -0.216999993       2.01032169E-09
 -0.206000000       5.87570126E-09
 -0.194999993       3.74528741E-10
 -0.184000000      -8.90850238E-09
 -0.172999993      -8.23086399E-09
 -0.162000000       7.59879271E-09
 -0.150999993       1.93802627E-08
 -0.140000001       2.67692402E-09
 -0.128999993      -2.54498396E-08
 -0.118000001      -1.69626464E-08
 -0.107000001       2.36150264E-08
  -9.60000008E-02   3.11844133E-08
  -8.50000009E-02  -1.13814309E-08
  -7.40000010E-02  -3.59844705E-08
  -6.30000010E-02  -5.28961452E-09
  -5.20000011E-02   3.05515186E-08
  -4.10000011E-02   2.54191050E-08
  -2.99999993E-02  -8.95203023E-09
  -1.89999994E-02  -3.57840335E-08
  -8.00000038E-03  -1.71190102E-08
   3.00000003E-03   3.09158494E-08
   1.40000004E-02   3.73215876E-08
   2.50000004E-02  -3.34307981E-09
   3.59999985E-02  -1.85713702E-08
   4.69999984E-02  -2.06974793E-09
   5.79999983E-02  -3.13758197E-09
   6.89999983E-02  -2.63203215E-09
   7.99999982E-02   4.75707340E-09
   9.09999982E-02  -7.58667973E-09
  0.101999998      -1.19323982E-08
  0.112999998       2.05344741E-09
  0.123999998      -1.45925299E-08
  0.135000005      -5.70379299E-09
  0.145999998       3.88483166E-08
  0.157000005       3.31832517E-08
  0.167999998      -2.59768758E-08
  0.179000005      -5.52427011E-08
  0.189999998      -1.55418540E-08
  0.201000005       3.41237580E-08
  0.211999997       7.48023687E-09
  0.223000005      -2.88658217E-08
  0.233999997       1.29328646E-08
  0.245000005       3.68998627E-08
  0.256000012      -1.25577273E-08
  0.266999990      -5.67707019E-08
  0.277999997      -5.95512226E-08
  0.289000005       2.42043772E-08
  0.300000012       7.28210665E-08
  0.310999990       1.18253283E-08
  0.321999997      -4.60236436E-08
  0.333000004       3.14384181E-08
  0.344000012       9.05443329E-08
  0.354999989      -4.25648601E-08
  0.365999997      -1.76460745E-07
  0.377000004      -1.72482828E-08
  0.388000011       1.75431367E-07
  0.398999989       4.45183517E-08
  0.409999996      -9.34748954E-08
  0.421000004      -1.11366489E-07
  0.432000011      -1.28209152E-07
  0.442999989       4.00830551E-08
  0.453999996       2.41940796E-07
  0.465000004      -3.03145598E-08
  0.476000011      -2.63759773E-07
  0.486999989      -3.16235571E-09
  0.497999996       1.79814762E-07
  0.509000003       9.00719428E-08
  0.519999981       4.85795795E-08
  0.531000018      -2.22826202E-08
  0.541999996      -1.94890333E-07
  0.552999973      -8.84846045E-08
  0.564000010       1.11275256E-07
  0.574999988       7.24051858E-08
  0.586000025       1.83257267E-08
  0.597000003       9.69350040E-08
  0.607999980      -5.02363484E-08
  0.619000018      -2.50706108E-07
  0.629999995      -4.46587256E-09
  0.640999973       1.48944721E-07
  0.652000010       4.82537672E-08
  0.662999988       1.50529360E-07
  0.674000025       3.41045556E-08
  0.685000002      -2.91055898E-07
  0.695999980      -6.18606748E-08
  0.707000017       1.69432397E-07
  0.717999995      -2.01356158E-07
  0.728999972      -1.57820253E-07
  0.740000010       1.12282997E-07
  0.750999987      -1.23718976E-07
  0.762000024      -1.25275035E-08
  0.773000002       2.95336974E-07
  0.783999979      -1.82966147E-07
  0.795000017      -3.30858597E-07
  0.805999994       3.07416570E-07
  0.816999972       2.23508465E-07
  0.828000009      -1.55671444E-07
  0.838999987       1.18627547E-07
  0.850000024      -2.17913225E-08
  0.861000001      -4.41879195E-07
  0.871999979       9.36343270E-08
  0.883000016       4.15692057E-07
  0.893999994      -1.57833611E-07
  0.904999971      -2.62949698E-07
  0.916000009      -1.78567099E-08
  0.926999986      -7.77380151E-08
  0.938000023       1.93315799E-07
  0.949000001       3.57248382E-07
  0.959999979      -1.33346845E-07
  0.971000016      -2.02537393E-07
  0.981999993       4.45222632E-08
  0.992999971      -2.15310010E-07
   1.00399995      -1.08019343E-07
   1.01499999       3.90257298E-07
   1.02600002       1.29507228E-07
   1.03699994      -1.60088220E-07
   1.04799998       8.98559591E-08
   1.05900002      -9.77973258E-08
   1.07000005      -2.44804852E-07
   1.08099997       2.55897390E-07
   1.09200001       1.81134368E-07
   1.10300004      -2.57539313E-07
   1.11399996       7.23851770E-08
   1.12500000       1.72530022E-07
   1.13600004      -2.66471432E-07
   1.14699996      -1.85595947E-08
   1.15799999       2.92664538E-07
   1.16900003      -8.85642422E-08
   1.17999995      -1.16224101E-07
   1.19099998       1.10201192E-07
   1.20200002      -1.17122745E-07
   1.21300006      -4.01115727E-08
   1.22399998       2.52543373E-07
   1.23500001      -5.50804984E-08
   1.24600005      -1.97146676E-07
   1.25699997       9.98945140E-08
   1.26800001      -1.23859163E-08
   1.27900004      -8.77461090E-08
   1.28999996       2.03354944E-07
   1.30100000       3.66626587E-08
   1.31200004      -2.22265939E-07
   1.32299995       2.46357845E-09
   1.33399999       1.87664835E-08
   1.34500003      -2.70557887E-08
   1.35599995       2.57107246E-07
   1.36699998       1.23000259E-08
   1.37800002      -4.36668387E-07
   1.38900006      -3.03578425E-08
