 -0.800000012       0.00000000
 -0.788999975       0.00000000
 -0.777999997       0.00000000
 -0.767000020       0.00000000
 -0.755999982       1.19482823E-14
 -0.745000005       2.97155963E-14
 -0.734000027       6.66404323E-13
 -0.722999990      -2.75070396E-12
 -0.712000012       6.44784486E-12
 -0.700999975      -1.13554253E-11
 -0.689999998      -7.56093799E-12
 -0.679000020       1.10035717E-10
 -0.667999983      -1.64014510E-10
 -0.657000005      -2.87914137E-10
 -0.646000028       9.53381707E-10
 -0.634999990       1.18145979E-10
 -0.624000013      -2.86612845E-09
 -0.612999976       1.52796087E-09
 -0.601999998       5.65793634E-09
 -0.591000021      -5.93804650E-09
 -0.579999983      -7.14152204E-09
 -0.569000006       1.28283526E-08
 -0.558000028       2.61560928E-09
 -0.546999991      -1.86305726E-08
 -0.536000013       1.33447520E-08
 -0.524999976       1.77261352E-08
 -0.513999999      -3.99744380E-08
 -0.503000021      -6.27097840E-09
 -0.492000014       5.91591451E-08
 -0.481000006      -1.91716243E-08
 -0.469999999      -3.46283500E-08
 -0.458999991       7.15441857E-08
 -0.448000014      -5.26103072E-08
 -0.437000006      -1.59254142E-07
 -0.425999999       1.55799498E-07
 -0.414999992       2.18661313E-07
 -0.404000014      -2.10889993E-07
 -0.393000007      -1.11592144E-07
 -0.381999999       2.70279315E-07
 -0.370999992      -1.40297900E-07
 -0.360000014      -3.45782070E-07
 -0.349000007       3.26426374E-07
 -0.338000000       1.25039719E-07
 -0.326999992      -7.02906448E-07
 -0.316000015       9.45424219E-08
 -0.305000007       1.21314395E-06
 -0.294000000       7.04003412E-07
 -0.282999992       9.17218131E-07
 -0.272000015       2.78975017E-06
 -0.261000007       3.55494035E-06
 -0.250000000       4.05722585E-06
 -0.238999993       7.03241994E-06
 -0.228000000       1.03119446E-05
 -0.216999993       1.26317927E-05
 -0.206000000       1.76911453E-05
 -0.194999993       2.58143900E-05
 -0.184000000       3.42716885E-05
 -0.172999993       4.56469643E-05
 -0.162000000       6.30476352E-05
 -0.150999993       8.45287286E-05
 -0.140000001       1.11084417E-04
 -0.128999993       1.47791652E-04
 -0.118000001       1.95402390E-04
 -0.107000001       2.54107261E-04
  -9.60000008E-02   3.29794770E-04
  -8.50000009E-02   4.27101593E-04
  -7.40000010E-02   5.47623320E-04
  -6.30000010E-02   6.97705138E-04
  -5.20000011E-02   8.85495916E-04
  -4.10000011E-02   1.11541722E-03
  -2.99999993E-02   1.39491411E-03
  -1.89999994E-02   1.73589692E-03
  -8.00000038E-03   2.14684219E-03
   3.00000003E-03   2.63600354E-03
   1.40000004E-02   3.21723381E-03
   2.50000004E-02   3.90270655E-03
   3.59999985E-02   4.70100297E-03
   4.69999984E-02   5.62547380E-03
   5.79999983E-02   6.69032196E-03
   6.89999983E-02   7.90270604E-03
   7.99999982E-02   9.27003473E-03
   9.09999982E-02   1.08027877E-02
  0.101999998       1.25036640E-02
  0.112999998       1.43687623E-02
  0.123999998       1.63963921E-02
  0.135000005       1.85791198E-02
  0.145999998       2.08966937E-02
  0.157000005       2.33262796E-02
  0.167999998       2.58433688E-02
  0.179000005       2.84096599E-02
  0.189999998       3.09771392E-02
  0.201000005       3.34980786E-02
  0.211999997       3.59166637E-02
  0.223000005       3.81643698E-02
  0.233999997       4.01724949E-02
  0.245000005       4.18733321E-02
  0.256000012       4.31902222E-02
  0.266999990       4.40451801E-02
  0.277999997       4.43698168E-02
  0.289000005       4.40979563E-02
  0.300000012       4.31640893E-02
  0.310999990       4.15168852E-02
  0.321999997       3.91190611E-02
  0.333000004       3.59389521E-02
  0.344000012       3.19594480E-02
  0.354999989       2.71856561E-02
  0.365999997       2.16349233E-02
  0.377000004       1.53357228E-02
  0.388000011       8.33809096E-03
  0.398999989       7.08331587E-04
  0.409999996      -7.48048490E-03
  0.421000004      -1.61415562E-02
  0.432000011      -2.51729880E-02
  0.442999989      -3.44702043E-02
  0.453999996      -4.39258553E-02
  0.465000004      -5.34228347E-02
  0.476000011      -6.28429800E-02
  0.486999989      -7.20743164E-02
  0.497999996      -8.10026601E-02
  0.509000003      -8.95115957E-02
  0.519999981      -9.74929482E-02
  0.531000018     -0.104843222
  0.541999996     -0.111455448
  0.552999973     -0.117225863
  0.564000010     -0.122058861
  0.574999988     -0.125858322
  0.586000025     -0.128526360
  0.597000003     -0.129973039
  0.607999980     -0.130115658
  0.619000018     -0.128873080
  0.629999995     -0.126173213
  0.640999973     -0.121961333
  0.652000010     -0.116197526
  0.662999988     -0.108858317
  0.674000025      -9.99477357E-02
  0.685000002      -8.95006582E-02
  0.695999980      -7.75805116E-02
  0.707000017      -6.42855242E-02
  0.717999995      -4.97539937E-02
  0.728999972      -3.41601148E-02
  0.740000010      -1.77129209E-02
  0.750999987      -6.57986908E-04
  0.762000024       1.67297684E-02
  0.773000002       3.41540836E-02
  0.783999979       5.12995720E-02
  0.795000017       6.78411126E-02
  0.805999994       8.34587589E-02
  0.816999972       9.78444740E-02
  0.828000009      0.110707574
  0.838999987      0.121789880
  0.850000024      0.130877182
  0.861000001      0.137800232
  0.871999979      0.142440617
  0.883000016      0.144741267
  0.893999994      0.144706488
  0.904999971      0.142395899
  0.916000009      0.137924939
  0.926999986      0.131465003
  0.938000023      0.123232454
  0.949000001      0.113477282
  0.959999979      0.102479137
  0.971000016       9.05389413E-02
  0.981999993       7.79633746E-02
  0.992999971       6.50553927E-02
   1.00399995       5.21098375E-02
   1.01499999       3.94024178E-02
   1.02600002       2.71790382E-02
   1.03699994       1.56541485E-02
   1.04799998       5.00822999E-03
   1.05900002      -4.61887335E-03
   1.07000005      -1.31281679E-02
   1.08099997      -2.04572361E-02
   1.09200001      -2.65806559E-02
   1.10300004      -3.15089449E-02
   1.11399996      -3.52811962E-02
   1.12500000      -3.79601009E-02
   1.13600004      -3.96305658E-02
   1.14699996      -4.03933600E-02
   1.15799999      -4.03568558E-02
   1.16900003      -3.96349728E-02
   1.17999995      -3.83455306E-02
   1.19099998      -3.66028547E-02
   1.20200002      -3.45133618E-02
   1.21300006      -3.21775191E-02
   1.22399998      -2.96876542E-02
   1.23500001      -2.71220803E-02
   1.24600005      -2.45471112E-02
   1.25699997      -2.20207311E-02
   1.26800001      -1.95883643E-02
   1.27900004      -1.72818862E-02
   1.28999996      -1.51262628E-02
   1.30100000      -1.31393354E-02
   1.31200004      -1.13276057E-02
   1.32299995      -9.69177578E-03
   1.33399999      -8.23143777E-03
   1.34500003      -6.94000395E-03
   1.35599995      -5.80534944E-03
   1.36699998      -4.81735915E-03
   1.37800002      -3.96603066E-03
   1.38900006      -3.23670008E-03
