 -0.959999979       1.19492281E-04
 -0.925000012       2.61834881E-04
 -0.889999986       3.99420212E-04
 -0.855000019       9.57505894E-04
 -0.819999993       2.22923211E-03
 -0.785000026       4.57110768E-03
 -0.750000000       8.92185140E-03
 -0.714999974       1.66962408E-02
 -0.680000007       2.96992827E-02
 -0.644999981       5.00893928E-02
 -0.610000014       7.96975344E-02
 -0.574999988      0.119131178
 -0.540000021      0.166584358
 -0.504999995      0.215758011
 -0.469999999      0.254559010
 -0.435000002      0.266255707
 -0.400000006      0.232153669
 -0.365000010      0.136219859
 -0.330000013      -2.64111310E-02
 -0.294999987     -0.240297437
 -0.259999990     -0.466833949
 -0.224999994     -0.650143087
 -0.189999998     -0.730959773
 -0.155000001     -0.668696880
 -0.119999997     -0.466869622
  -8.50000009E-02 -0.188493133
  -5.00000007E-02   5.05282991E-02
  -1.49999997E-02  0.112158440
   1.99999996E-02 -0.114559285
   5.49999997E-02 -0.658530056
   9.00000036E-02  -1.42732942
  0.125000000      -2.20605874
  0.159999996      -2.70370412
  0.194999993      -2.63791251
  0.230000004      -1.83401287
  0.264999986     -0.304599136
  0.300000012       1.72318316
  0.335000008       3.84967899
  0.370000005       5.60537624
  0.405000001       6.58189392
  0.439999998       6.54690552
  0.474999994       5.50346518
  0.509999990       3.67635703
  0.545000017       1.43652213
  0.579999983     -0.804977655
  0.615000010      -2.69568563
  0.649999976      -4.00408506
  0.685000002      -4.63749504
  0.720000029      -4.62724113
  0.754999995      -4.09729719
  0.790000021      -3.22654486
  0.824999988      -2.21082854
  0.860000014      -1.22892392
  0.894999981     -0.413860977
  0.930000007      0.166377127
  0.964999974      0.509781957
   1.00000000      0.660111248
   1.03499997      0.677447796
   1.07000005      0.615890801
   1.10500002      0.515813291
   1.13999999      0.408705145
   1.17499995      0.326710105
   1.21000004      0.304673731
   1.24500000      0.366894871
   1.27999997      0.506148160
   1.31500006      0.673612833
   1.35000002      0.792317748
   1.38499999      0.790424466
   1.41999996      0.637407422
   1.45500004      0.362483442
   1.49000001       4.28172909E-02
   1.52499998     -0.233516440
   1.55999994     -0.408836484
   1.59500003     -0.477185190
   1.63000000     -0.473942220
