 -0.959999979       3.09294528E-20
 -0.925000012       2.04762182E-06
 -0.889999986       1.70046296E-05
 -0.855000019       5.45860057E-05
 -0.819999993       8.80490406E-05
 -0.785000026       6.90117595E-05
 -0.750000000       1.54938927E-04
 -0.714999974       6.52922958E-04
 -0.680000007       1.37077866E-03
 -0.644999981       1.82641635E-03
 -0.610000014       2.47583329E-03
 -0.574999988       4.17047087E-03
 -0.540000021       6.29513711E-03
 -0.504999995       7.50285713E-03
 -0.469999999       7.50871748E-03
 -0.435000002       5.91380103E-03
 -0.400000006       1.17756648E-03
 -0.365000010      -7.28914002E-03
 -0.330000013      -1.84434801E-02
 -0.294999987      -3.11620347E-02
 -0.259999990      -4.31242958E-02
 -0.224999994      -4.96001504E-02
 -0.189999998      -4.66749631E-02
 -0.155000001      -3.28550562E-02
 -0.119999997      -5.05006546E-03
  -8.50000009E-02   4.37532961E-02
  -5.00000007E-02  0.122456327
  -1.49999997E-02  0.239261925
   1.99999996E-02  0.392912090
   5.49999997E-02  0.551467359
   9.00000036E-02  0.629859149
  0.125000000      0.484203935
  0.159999996      -6.62176237E-02
  0.194999993      -1.18081129
  0.230000004      -2.90541363
  0.264999986      -5.07618141
  0.300000012      -7.26605940
  0.335000008      -8.81076813
  0.370000005      -8.93234921
  0.405000001      -6.94862366
  0.439999998      -2.51537943
  0.474999994       4.17386055
  0.509999990       12.2950706
  0.545000017       20.4536915
  0.579999983       26.9129791
  0.615000010       29.9551754
  0.649999976       28.2949047
  0.685000002       21.4527111
  0.720000029       9.99282837
  0.754999995      -4.46754932
  0.790000021      -19.5183048
  0.824999988      -32.4377136
  0.860000014      -40.7834892
  0.894999981      -42.9537239
  0.930000007      -38.5663033
  0.964999974      -28.5367699
   1.00000000      -14.8331461
   1.03499997       3.79829062E-03
   1.07000005       13.4312429
   1.10500002       23.4206390
   1.13999999       28.7984142
   1.17499995       29.3491211
   1.21000004       25.7033329
   1.24500000       19.0911026
   1.27999997       11.0414133
   1.31500006       3.07968044
   1.35000002      -3.53688002
   1.38499999      -8.00826359
   1.41999996      -10.0758495
   1.45500004      -9.98659706
   1.49000001      -8.34398270
   1.52499998      -5.88955879
   1.55999994      -3.29367471
   1.59500003      -1.03172123
   1.63000000      0.627447605
