 -0.959999979       0.00000000
 -0.925000012      -1.42669251E-06
 -0.889999986      -1.68209517E-05
 -0.855000019      -1.20412769E-05
 -0.819999993       2.46166455E-05
 -0.785000026      -2.23756088E-05
 -0.750000000      -1.21447272E-04
 -0.714999974      -9.71984773E-05
 -0.680000007      -5.01593786E-05
 -0.644999981      -9.79910983E-05
 -0.610000014       7.17483908E-06
 -0.574999988       4.61541844E-04
 -0.540000021       1.36765395E-03
 -0.504999995       3.14555992E-03
 -0.469999999       6.17204560E-03
 -0.435000002       1.05692009E-02
 -0.400000006       1.66387707E-02
 -0.365000010       2.45359167E-02
 -0.330000013       3.39609124E-02
 -0.294999987       4.51821461E-02
 -0.259999990       5.99004440E-02
 -0.224999994       8.15562308E-02
 -0.189999998      0.116131984
 -0.155000001      0.171653420
 -0.119999997      0.254637629
  -8.50000009E-02  0.364823520
  -5.00000007E-02  0.489094019
  -1.49999997E-02  0.595760047
   1.99999996E-02  0.633728564
   5.49999997E-02  0.540452361
   9.00000036E-02  0.258680224
  0.125000000     -0.240080893
  0.159999996     -0.931033313
  0.194999993      -1.72099745
  0.230000004      -2.45261216
  0.264999986      -2.93203807
  0.300000012      -2.97768784
  0.335000008      -2.47856259
  0.370000005      -1.44241321
  0.405000001      -1.39171220E-02
  0.439999998       1.54819918
  0.474999994       2.93286586
  0.509999990       3.85959482
  0.545000017       4.15404415
  0.579999983       3.78964996
  0.615000010       2.88264322
  0.649999976       1.64588761
  0.685000002      0.322863728
  0.720000029     -0.871040881
  0.754999995      -1.78178120
  0.790000021      -2.32276988
  0.824999988      -2.46508145
  0.860000014      -2.22743082
  0.894999981      -1.67518377
  0.930000007     -0.923679292
  0.964999974     -0.131944448
   1.00000000      0.524267673
   1.03499997      0.899283469
   1.07000005      0.927969217
   1.10500002      0.654402375
   1.13999999      0.219630331
   1.17499995     -0.191761836
   1.21000004     -0.425910056
   1.24500000     -0.421193719
   1.27999997     -0.226981550
   1.31500006       2.91956700E-02
   1.35000002      0.209284261
   1.38499999      0.233766049
   1.41999996      0.117331780
   1.45500004      -4.64274436E-02
   1.49000001     -0.141047686
   1.52499998      -9.31507945E-02
   1.55999994       8.60941783E-02
   1.59500003      0.305791050
   1.63000000      0.443592638
