 -0.959999979       0.00000000
 -0.925000012       8.36441359E-06
 -0.889999986       1.83283300E-05
 -0.855000019       3.63236250E-05
 -0.819999993       8.53532765E-05
 -0.785000026       1.92368840E-04
 -0.750000000       4.05328523E-04
 -0.714999974       8.16893880E-04
 -0.680000007       1.57405657E-03
 -0.644999981       2.89582764E-03
 -0.610000014       5.08028688E-03
 -0.574999988       8.47461075E-03
 -0.540000021       1.34194000E-02
 -0.504999995       2.01354157E-02
 -0.469999999       2.85223275E-02
 -0.435000002       3.79543751E-02
 -0.400000006       4.71600369E-02
 -0.365000010       5.42049520E-02
 -0.330000013       5.66952713E-02
 -0.294999987       5.23561053E-02
 -0.259999990       3.98745462E-02
 -0.224999994       1.96780339E-02
 -0.189999998      -5.63499331E-03
 -0.155000001      -3.14885266E-02
 -0.119999997      -5.24430461E-02
  -8.50000009E-02  -6.41687438E-02
  -5.00000007E-02  -6.56370744E-02
  -1.49999997E-02  -6.06315732E-02
   1.99999996E-02  -5.77861629E-02
   5.49999997E-02  -6.86511919E-02
   9.00000036E-02 -0.103883848
  0.125000000     -0.168565005
  0.159999996     -0.258308947
  0.194999993     -0.357824951
  0.230000004     -0.442962885
  0.264999986     -0.486205488
  0.300000012     -0.464284480
  0.335000008     -0.365582347
  0.370000005     -0.194806203
  0.405000001       2.67946329E-02
  0.439999998      0.265926182
  0.474999994      0.485077679
  0.509999990      0.651169002
  0.545000017      0.742422640
  0.579999983      0.751724601
  0.615000010      0.686073542
  0.649999976      0.563026905
  0.685000002      0.405787587
  0.720000029      0.238401651
  0.754999995       8.18807408E-02
  0.790000021      -4.84085083E-02
  0.824999988     -0.143977404
  0.860000014     -0.203166887
  0.894999981     -0.230001763
  0.930000007     -0.232136518
  0.964999974     -0.218355238
   1.00000000     -0.196452007
   1.03499997     -0.172147393
   1.07000005     -0.149030313
   1.10500002     -0.129035041
   1.13999999     -0.112923823
   1.17499995     -0.100425713
   1.21000004      -9.00535285E-02
   1.24500000      -7.90985227E-02
   1.27999997      -6.43717796E-02
   1.31500006      -4.36684228E-02
   1.35000002      -1.72179788E-02
   1.38499999       1.17942663E-02
   1.41999996       3.81111018E-02
   1.45500004       5.64124919E-02
   1.49000001       6.34854212E-02
   1.52499998       5.94096929E-02
   1.55999994       4.71385457E-02
   1.59500003       3.07909753E-02
   1.63000000       1.37362499E-02
