 -0.800000012       0.00000000
 -0.788999975       0.00000000
 -0.777999997       0.00000000
 -0.767000020      -8.07917910E-09
 -0.755999982       2.91881168E-08
 -0.745000005       4.37505854E-08
 -0.734000027      -1.25718287E-07
 -0.722999990      -1.08498718E-07
 -0.712000012       3.02223953E-07
 -0.700999975       1.21346176E-07
 -0.689999998      -5.17289209E-07
 -0.679000020       8.45977581E-08
 -0.667999983       6.61913646E-07
 -0.657000005      -6.03944386E-07
 -0.646000028      -3.52454407E-07
 -0.634999990       1.75078310E-06
 -0.624000013      -4.46105616E-07
 -0.612999976      -3.62834817E-06
 -0.601999998       1.00960597E-06
 -0.591000021       5.14954536E-06
 -0.579999983      -9.80009986E-07
 -0.569000006      -4.62944399E-06
 -0.558000028       1.71172314E-06
 -0.546999991       3.25446717E-06
 -0.536000013      -2.23002189E-06
 -0.524999976      -1.55585622E-06
 -0.513999999       1.49668813E-06
 -0.503000021      -6.56430643E-07
 -0.492000014      -3.68727711E-07
 -0.481000006       1.94359041E-06
 -0.469999999      -5.11850772E-07
 -0.458999991       4.35545246E-07
 -0.448000014       5.34691117E-06
 -0.437000006       9.38301639E-07
 -0.425999999      -4.25104736E-06
 -0.414999992       3.66135259E-06
 -0.404000014       8.76457943E-06
 -0.393000007       2.95342670E-06
 -0.381999999       6.07452375E-06
 -0.370999992       1.68624629E-05
 -0.360000014       1.67222661E-05
 -0.349000007       1.72131386E-05
 -0.338000000       3.36905541E-05
 -0.326999992       5.10015780E-05
 -0.316000015       6.13317970E-05
 -0.305000007       7.91896236E-05
 -0.294000000       1.08083412E-04
 -0.282999992       1.44698861E-04
 -0.272000015       1.94945183E-04
 -0.261000007       2.57286098E-04
 -0.250000000       3.28783615E-04
 -0.238999993       4.24177764E-04
 -0.228000000       5.52588666E-04
 -0.216999993       7.07329076E-04
 -0.206000000       8.97562015E-04
 -0.194999993       1.14310230E-03
 -0.184000000       1.44402648E-03
 -0.172999993       1.80165516E-03
 -0.162000000       2.24165339E-03
 -0.150999993       2.78305309E-03
 -0.140000001       3.42443795E-03
 -0.128999993       4.17621853E-03
 -0.118000001       5.06535359E-03
 -0.107000001       6.10739924E-03
  -9.60000008E-02   7.30663678E-03
  -8.50000009E-02   8.67421739E-03
  -7.40000010E-02   1.02227340E-02
  -6.30000010E-02   1.19534377E-02
  -5.20000011E-02   1.38600329E-02
  -4.10000011E-02   1.59329083E-02
  -2.99999993E-02   1.81527063E-02
  -1.89999994E-02   2.04858743E-02
  -8.00000038E-03   2.28837430E-02
   3.00000003E-03   2.52784658E-02
   1.40000004E-02   2.75831465E-02
   2.50000004E-02   2.96956412E-02
   3.59999985E-02   3.14912945E-02
   4.69999984E-02   3.28136049E-02
   5.79999983E-02   3.34812328E-02
   6.89999983E-02   3.32954898E-02
   7.99999982E-02   3.20349745E-02
   9.09999982E-02   2.94559877E-02
  0.101999998       2.53024101E-02
  0.112999998       1.93100646E-02
  0.123999998       1.12121468E-02
  0.135000005       7.51031388E-04
  0.145999998      -1.23098390E-02
  0.157000005      -2.81695779E-02
  0.167999998      -4.69767787E-02
  0.179000005      -6.88266382E-02
  0.189999998      -9.37377885E-02
  0.201000005     -0.121618077
  0.211999997     -0.152270436
  0.223000005     -0.185400635
  0.233999997     -0.220575139
  0.245000005     -0.257204056
  0.256000012     -0.294580698
  0.266999990     -0.331880212
  0.277999997     -0.368131250
  0.289000005     -0.402256042
  0.300000012     -0.433121175
  0.310999990     -0.459533095
  0.321999997     -0.480261981
  0.333000004     -0.494110882
  0.344000012     -0.499955028
  0.354999989     -0.496773988
  0.365999997     -0.483712643
  0.377000004     -0.460122764
  0.388000011     -0.425594717
  0.398999989     -0.380007535
  0.409999996     -0.323550045
  0.421000004     -0.256723046
  0.432000011     -0.180375129
  0.442999989      -9.57042873E-02
  0.453999996      -4.19211807E-03
  0.465000004       9.24211815E-02
  0.476000011      0.192126706
  0.486999989      0.292724758
  0.497999996      0.391942859
  0.509000003      0.487471759
  0.519999981      0.576996386
  0.531000018      0.658317327
  0.541999996      0.729459167
  0.552999973      0.788686812
  0.564000010      0.834543765
  0.574999988      0.865959227
  0.586000025      0.882293820
  0.597000003      0.883300185
  0.607999980      0.869128883
  0.619000018      0.840371192
  0.629999995      0.798019886
  0.640999973      0.743388414
  0.652000010      0.678078175
  0.662999988      0.603942633
  0.674000025      0.523000240
  0.685000002      0.437351227
  0.695999980      0.349111140
  0.707000017      0.260348171
  0.717999995      0.173034698
  0.728999972       8.89822617E-02
  0.740000010       9.76115279E-03
  0.750999987      -6.33132830E-02
  0.762000024     -0.129159868
  0.773000002     -0.186980724
  0.783999979     -0.236301497
  0.795000017     -0.276908547
  0.805999994     -0.308804750
  0.816999972     -0.332244009
  0.828000009     -0.347704291
  0.838999987     -0.355789512
  0.850000024     -0.357203722
  0.861000001     -0.352768540
  0.871999979     -0.343365967
  0.883000016     -0.329860926
  0.893999994     -0.313096672
  0.904999971     -0.293902069
  0.916000009     -0.273047894
  0.926999986     -0.251209378
  0.938000023     -0.228981525
  0.949000001     -0.206890360
  0.959999979     -0.185366765
  0.971000016     -0.164736867
  0.981999993     -0.145250812
  0.992999971     -0.127099484
   1.00399995     -0.110403381
   1.01499999      -9.52140465E-02
   1.02600002      -8.15364793E-02
   1.03699994      -6.93461299E-02
   1.04799998      -5.85902222E-02
   1.05900002      -4.91842255E-02
   1.07000005      -4.10229340E-02
   1.08099997      -3.40028405E-02
   1.09200001      -2.80213505E-02
   1.10300004      -2.29605269E-02
   1.11399996      -1.87012888E-02
   1.12500000      -1.51456809E-02
   1.13600004      -1.22013092E-02
   1.14699996      -9.76860058E-03
   1.15799999      -7.76305376E-03
   1.16900003      -6.12061145E-03
   1.17999995      -4.77734301E-03
   1.19099998      -3.67409620E-03
   1.20200002      -2.77137221E-03
   1.21300006      -2.03703810E-03
   1.22399998      -1.43617706E-03
   1.23500001      -9.43047518E-04
   1.24600005      -5.45563409E-04
   1.25699997      -2.34723761E-04
   1.26800001       2.20189304E-06
   1.27900004       1.77959490E-04
   1.28999996       2.97166960E-04
   1.30100000       3.60587495E-04
   1.31200004       3.78965982E-04
   1.32299995       3.64859327E-04
   1.33399999       3.17318627E-04
   1.34500003       2.40231981E-04
   1.35599995       1.54482754E-04
   1.36699998       6.79070436E-05
   1.37800002      -2.84620892E-05
   1.38900006      -1.22780984E-04
