 -0.959999979      -5.57175488E-04
 -0.925000012       2.18296249E-04
 -0.889999986       2.32868515E-05
 -0.855000019      -1.28602108E-03
 -0.819999993      -2.20373622E-03
 -0.785000026      -3.05944425E-03
 -0.750000000      -4.49366728E-03
 -0.714999974      -6.67414255E-03
 -0.680000007      -9.82872956E-03
 -0.644999981      -1.10187903E-02
 -0.610000014      -5.37454057E-03
 -0.574999988       8.28355923E-03
 -0.540000021       3.09533309E-02
 -0.504999995       6.69044405E-02
 -0.469999999      0.113197960
 -0.435000002      0.153737590
 -0.400000006      0.166931942
 -0.365000010      0.125688881
 -0.330000013      -3.63144511E-03
 -0.294999987     -0.236815527
 -0.259999990     -0.544123411
 -0.224999994     -0.855370462
 -0.189999998      -1.08214080
 -0.155000001      -1.14003134
 -0.119999997     -0.994514823
  -8.50000009E-02 -0.724923968
  -5.00000007E-02 -0.545448005
  -1.49999997E-02 -0.747308314
   1.99999996E-02  -1.57850587
   5.49999997E-02  -3.08498430
   9.00000036E-02  -4.95509863
  0.125000000      -6.46076155
  0.159999996      -6.58582115
  0.194999993      -4.34388208
  0.230000004      0.798917830
  0.264999986       8.53547001
  0.300000012       17.5440464
  0.335000008       25.6760902
  0.370000005       30.5074940
  0.405000001       30.0830231
  0.439999998       23.5930004
  0.474999994       11.7218161
  0.509999990      -3.47972775
  0.545000017      -19.1364079
  0.579999983      -32.2787857
  0.615000010      -40.5223808
  0.649999976      -42.5323372
  0.685000002      -38.2008858
  0.720000029      -28.5689545
  0.754999995      -15.5725784
  0.790000021      -1.65002429
  0.824999988       10.7707148
  0.860000014       19.8010120
  0.894999981       24.4697723
  0.930000007       24.8293934
  0.964999974       21.7637825
   1.00000000       16.5797043
   1.03499997       10.5732794
   1.07000005       4.77636147
   1.10500002      -6.77822828E-02
   1.13999999      -3.42977810
   1.17499995      -4.98098993
   1.21000004      -4.69459581
   1.24500000      -2.97912383
   1.27999997     -0.682214856
   1.31500006       1.15494347
   1.35000002       1.73076642
   1.38499999      0.860078514
   1.41999996     -0.958336651
   1.45500004      -2.85085201
   1.49000001      -4.07556772
   1.52499998      -4.40423346
   1.55999994      -4.13193989
   1.59500003      -3.73082066
   1.63000000      -3.41872692
