 -0.800000012       0.00000000
 -0.788999975       0.00000000
 -0.777999997       0.00000000
 -0.767000020       0.00000000
 -0.755999982      -2.37337927E-09
 -0.745000005       1.61121907E-08
 -0.734000027      -7.37000647E-08
 -0.722999990       2.05184108E-07
 -0.712000012      -1.98596354E-07
 -0.700999975      -5.40969381E-07
 -0.689999998       1.90790774E-06
 -0.679000020      -1.31481170E-06
 -0.667999983      -4.23616666E-06
 -0.657000005       9.61330079E-06
 -0.646000028       4.30903981E-07
 -0.634999990      -2.46372074E-05
 -0.624000013       1.98063444E-05
 -0.612999976       3.44677828E-05
 -0.601999998      -5.22407208E-05
 -0.591000021      -1.70611420E-05
 -0.579999983       4.59850380E-05
 -0.569000006      -3.78550139E-05
 -0.558000028       1.19770579E-04
 -0.546999991       1.01745558E-04
 -0.536000013      -6.07279537E-04
 -0.524999976      -1.15949435E-04
 -0.513999999       1.49546145E-03
 -0.503000021       5.52590354E-05
 -0.492000014      -2.56109168E-03
 -0.481000006       2.95887403E-05
 -0.469999999       3.10024084E-03
 -0.458999991      -1.42327248E-04
 -0.448000014      -2.10990664E-03
 -0.437000006       6.25521760E-04
 -0.425999999      -8.72455596E-04
 -0.414999992      -2.08545104E-03
 -0.404000014       4.70291916E-03
 -0.393000007       4.36612545E-03
 -0.381999999      -7.01074535E-03
 -0.370999992      -5.74715901E-03
 -0.360000014       6.65856898E-03
 -0.349000007       5.13270777E-03
 -0.338000000      -3.93129233E-03
 -0.326999992      -3.87949031E-03
 -0.316000015      -2.75919843E-03
 -0.305000007      -8.90904281E-04
 -0.294000000       5.72644547E-03
 -0.282999992      -9.17513273E-04
 -0.272000015      -1.41893737E-02
 -0.261000007      -2.67025037E-03
 -0.250000000       1.17141884E-02
 -0.238999993      -7.33635761E-03
 -0.228000000      -2.53060684E-02
 -0.216999993      -1.17418934E-02
 -0.206000000      -3.81639157E-03
 -0.194999993      -1.62609164E-02
 -0.184000000      -2.31144130E-02
 -0.172999993      -3.39157097E-02
 -0.162000000      -5.68438210E-02
 -0.150999993      -5.95482141E-02
 -0.140000001      -5.10254055E-02
 -0.128999993      -7.64481649E-02
 -0.118000001     -0.119340323
 -0.107000001     -0.142638847
  -9.60000008E-02 -0.165322930
  -8.50000009E-02 -0.203127980
  -7.40000010E-02 -0.241558686
  -6.30000010E-02 -0.292646736
  -5.20000011E-02 -0.364689529
  -4.10000011E-02 -0.427233487
  -2.99999993E-02 -0.483401239
  -1.89999994E-02 -0.569604695
  -8.00000038E-03 -0.670592606
   3.00000003E-03 -0.756635189
   1.40000004E-02 -0.847376168
   2.50000004E-02 -0.949341178
   3.59999985E-02  -1.03966820
   4.69999984E-02  -1.13264167
   5.79999983E-02  -1.23786056
   6.89999983E-02  -1.31079590
   7.99999982E-02  -1.34051132
   9.09999982E-02  -1.36753809
  0.101999998      -1.38268685
  0.112999998      -1.34525692
  0.123999998      -1.26054823
  0.135000005      -1.13307321
  0.145999998     -0.940028012
  0.157000005     -0.690813422
  0.167999998     -0.400886625
  0.179000005      -4.30254154E-02
  0.189999998      0.391489416
  0.201000005      0.871562660
  0.211999997       1.39369774
  0.223000005       1.96767271
  0.233999997       2.56751084
  0.245000005       3.17253971
  0.256000012       3.78834033
  0.266999990       4.39472389
  0.277999997       4.95191479
  0.289000005       5.44830894
  0.300000012       5.88088703
  0.310999990       6.22422028
  0.321999997       6.45734262
  0.333000004       6.57889414
  0.344000012       6.57807779
  0.354999989       6.43542671
  0.365999997       6.15598345
  0.377000004       5.75850677
  0.388000011       5.24207306
  0.398999989       4.60809326
  0.409999996       3.88316917
  0.421000004       3.08360577
  0.432000011       2.20915556
  0.442999989       1.28556943
  0.453999996      0.346897691
  0.465000004     -0.602811575
  0.476000011      -1.55856502
  0.486999989      -2.49930453
  0.497999996      -3.42495561
  0.509000003      -4.33889866
  0.519999981      -5.22177124
  0.531000018      -6.07290030
  0.541999996      -6.91587877
  0.552999973      -7.74699688
  0.564000010      -8.55016422
  0.574999988      -9.33104897
  0.586000025      -10.0898705
  0.597000003      -10.8062792
  0.607999980      -11.4661980
  0.619000018      -12.0539570
  0.629999995      -12.5368595
  0.640999973      -12.8791370
  0.652000010      -13.0485773
  0.662999988      -13.0132875
  0.674000025      -12.7450466
  0.685000002      -12.2117882
  0.695999980      -11.3813257
  0.707000017      -10.2401981
  0.717999995      -8.78966331
  0.728999972      -7.03641367
  0.740000010      -5.00326824
  0.750999987      -2.72858882
  0.762000024     -0.257290602
  0.773000002       2.35235953
  0.783999979       5.02685213
  0.795000017       7.68672514
  0.805999994       10.2464952
  0.816999972       12.6216812
  0.828000009       14.7369528
  0.838999987       16.5205574
  0.850000024       17.9066772
  0.861000001       18.8494968
  0.871999979       19.3161907
  0.883000016       19.2876339
  0.893999994       18.7722359
  0.904999971       17.7972546
  0.916000009       16.3976231
  0.926999986       14.6224413
  0.938000023       12.5354414
  0.949000001       10.2162132
  0.959999979       7.75758886
  0.971000016       5.24048996
  0.981999993       2.73169923
  0.992999971      0.310213923
   1.00399995      -1.94635689
   1.01499999      -3.98660684
   1.02600002      -5.76236534
   1.03699994      -7.22920370
   1.04799998      -8.37800312
   1.05900002      -9.21138000
   1.07000005      -9.72070885
   1.08099997      -9.92145157
   1.09200001      -9.85156918
   1.10300004      -9.53566647
   1.11399996      -9.00730801
   1.12500000      -8.32057667
   1.13600004      -7.51031685
   1.14699996      -6.60387516
   1.15799999      -5.65417290
   1.16900003      -4.70427036
   1.17999995      -3.77101231
   1.19099998      -2.88295126
   1.20200002      -2.06808877
   1.21300006      -1.32560802
   1.22399998     -0.661257803
   1.23500001      -9.92280692E-02
   1.24600005      0.359611571
   1.25699997      0.731632888
   1.26800001       1.01849234
   1.27900004       1.22363746
   1.28999996       1.36346292
   1.30100000       1.44446981
   1.31200004       1.47025764
   1.32299995       1.45792139
   1.33399999       1.41707945
   1.34500003       1.34485149
   1.35599995       1.25222206
   1.36699998       1.15543115
   1.37800002       1.05230355
   1.38900006      0.942141414
