 -0.800000012       0.00000000
 -0.788999975       0.00000000
 -0.777999997       0.00000000
 -0.767000020       2.19192999E-26
 -0.755999982       3.80000363E-18
 -0.745000005       4.52657550E-18
 -0.734000027       2.94455758E-16
 -0.722999990       1.54506473E-16
 -0.712000012      -5.15256865E-16
 -0.700999975       2.63046691E-16
 -0.689999998       3.42971645E-15
 -0.679000020      -2.96956199E-15
 -0.667999983       5.69533413E-16
 -0.657000005       1.63279644E-14
 -0.646000028       2.06010729E-14
 -0.634999990      -1.23653546E-14
 -0.624000013       1.46444299E-15
 -0.612999976       3.89713625E-14
 -0.601999998       8.16635645E-15
 -0.591000021      -8.62900585E-15
 -0.579999983      -5.15128296E-15
 -0.569000006       3.86443790E-15
 -0.558000028       3.93379177E-14
 -0.546999991      -4.08160342E-14
 -0.536000013      -1.34913795E-13
 -0.524999976       1.34036476E-14
 -0.513999999       2.97618375E-14
 -0.503000021      -1.69966661E-13
 -0.492000014       4.11636843E-13
 -0.481000006       8.31213570E-13
 -0.469999999      -3.53450857E-13
 -0.458999991      -1.04680468E-12
 -0.448000014       2.31802641E-13
 -0.437000006       6.50169968E-13
 -0.425999999      -1.19721409E-12
 -0.414999992       7.11670902E-13
 -0.404000014       5.67025593E-12
 -0.393000007      -1.68683603E-13
 -0.381999999      -1.18202323E-11
 -0.370999992      -3.79751352E-12
 -0.360000014       1.25357892E-11
 -0.349000007       2.42165532E-12
 -0.338000000       3.26853627E-12
 -0.326999992       1.42218086E-11
 -0.316000015      -2.53190940E-11
 -0.305000007      -2.74651968E-11
 -0.294000000       5.61439228E-11
 -0.282999992       6.61739283E-12
 -0.272000015      -8.98773139E-11
 -0.261000007       3.04909605E-11
 -0.250000000       5.11171175E-11
 -0.238999993      -8.71505507E-11
 -0.228000000       3.69125078E-11
 -0.216999993       1.32607245E-10
 -0.206000000      -3.29204095E-11
 -0.194999993      -1.42423753E-10
 -0.184000000      -9.10821765E-11
 -0.172999993       6.00825500E-11
 -0.162000000       1.12296797E-10
 -0.150999993       4.77787865E-10
 -0.140000001       8.33105321E-11
 -0.128999993      -7.64421582E-10
 -0.118000001      -4.07789670E-11
 -0.107000001       3.96362138E-10
  -9.60000008E-02  -2.80449219E-10
  -8.50000009E-02  -9.94036520E-10
  -7.40000010E-02   6.37170872E-10
  -6.30000010E-02   1.82459359E-09
  -5.20000011E-02  -5.77289161E-10
  -4.10000011E-02  -2.04516115E-09
  -2.99999993E-02   1.18691368E-09
  -1.89999994E-02   3.18199200E-09
  -8.00000038E-03  -2.65941535E-09
   3.00000003E-03  -6.00527139E-09
   1.40000004E-02   2.31199149E-09
   2.50000004E-02   6.56457733E-09
   3.59999985E-02   2.22246055E-10
   4.69999984E-02  -2.33132291E-09
   5.79999983E-02   2.76203216E-09
   6.89999983E-02   6.20538154E-09
   7.99999982E-02   1.47752610E-09
   9.09999982E-02  -5.83667159E-09
  0.101999998      -1.69664300E-11
  0.112999998       8.66063221E-09
  0.123999998       2.86158452E-09
  0.135000005      -1.18257082E-09
  0.145999998       5.75731962E-10
  0.157000005      -1.75441106E-09
  0.167999998      -4.71182915E-09
  0.179000005      -4.37705622E-10
  0.189999998      -9.64123092E-09
  0.201000005      -8.87156215E-09
  0.211999997       8.63613892E-09
  0.223000005       7.80184894E-09
  0.233999997      -4.44218262E-09
  0.245000005       1.12697487E-08
  0.256000012       1.22234001E-08
  0.266999990      -1.84306490E-08
  0.277999997      -2.13783853E-08
  0.289000005      -9.47925405E-10
  0.300000012      -7.12821224E-09
  0.310999990      -9.69727854E-09
  0.321999997       1.36113494E-08
  0.333000004       2.28054695E-08
  0.344000012       6.25142604E-10
  0.354999989      -2.25876331E-08
  0.365999997      -4.41639223E-08
  0.377000004      -1.23775408E-08
  0.388000011       4.32956568E-08
  0.398999989       2.86562454E-08
  0.409999996      -2.13944347E-08
  0.421000004      -7.18581283E-09
  0.432000011       1.75613675E-08
  0.442999989      -2.12548548E-10
  0.453999996       1.03595994E-08
  0.465000004       4.91010042E-08
  0.476000011       1.77582802E-08
  0.486999989      -5.83505368E-08
  0.497999996      -5.26880370E-08
  0.509000003       2.09223092E-08
  0.519999981       3.64583244E-08
  0.531000018      -2.51956700E-09
  0.541999996      -1.08794245E-08
  0.552999973       2.53161261E-08
  0.564000010       2.54172541E-08
  0.574999988       3.71628284E-09
  0.586000025      -2.42164262E-08
  0.597000003      -7.19723525E-09
  0.607999980       1.44535353E-08
  0.619000018       2.25082353E-08
  0.629999995      -1.33413876E-08
  0.640999973      -2.84876940E-08
  0.652000010       4.75323318E-08
  0.662999988       5.94939920E-08
  0.674000025      -5.22552099E-08
  0.685000002      -9.29654362E-08
  0.695999980      -4.66319072E-08
  0.707000017      -2.69922626E-08
  0.717999995      -2.19219363E-08
  0.728999972       2.55833346E-08
  0.740000010       4.51062014E-08
  0.750999987       4.72304187E-08
  0.762000024       4.24767705E-08
  0.773000002       3.64043773E-09
  0.783999979      -1.84812112E-08
  0.795000017       1.42142849E-08
  0.805999994       3.68275401E-08
  0.816999972       1.31851587E-08
  0.828000009      -1.86080822E-08
  0.838999987      -3.34480390E-08
  0.850000024      -3.61506522E-08
  0.861000001      -3.42059820E-08
  0.871999979      -3.43816069E-08
  0.883000016      -1.53575126E-08
  0.893999994       2.42622491E-08
  0.904999971       3.78398113E-08
  0.916000009       3.04891188E-08
  0.926999986       1.99085477E-08
  0.938000023      -6.52834586E-09
  0.949000001      -7.98048649E-09
  0.959999979       2.94480174E-09
  0.971000016      -3.97051245E-08
  0.981999993      -7.53080158E-08
  0.992999971      -3.80371468E-08
   1.00399995      -8.13022272E-09
   1.01499999      -4.43364847E-08
   1.02600002      -2.65394409E-08
   1.03699994       7.44487778E-08
   1.04799998       1.06170702E-07
   1.05900002       3.04304208E-08
   1.07000005      -2.11257127E-08
   1.08099997      -6.36561470E-09
   1.09200001      -6.62683108E-09
   1.10300004      -5.07097013E-08
   1.11399996      -4.74396487E-08
   1.12500000       4.00684392E-08
   1.13600004       7.92104160E-08
   1.14699996       1.52286308E-08
   1.15799999      -1.37917882E-08
   1.16900003       8.96398689E-09
   1.17999995      -3.73595661E-08
   1.19099998      -7.96231205E-08
   1.20200002      -2.23984014E-08
   1.21300006       1.28167343E-09
   1.22399998      -3.91623161E-08
   1.23500001      -2.82778134E-09
   1.24600005       5.37714158E-08
   1.25699997       1.72371433E-08
   1.26800001      -1.07719824E-08
   1.27900004       2.03884163E-08
   1.28999996       2.61774336E-08
   1.30100000       2.64682782E-08
   1.31200004       5.72733754E-08
   1.32299995       6.40169091E-08
   1.33399999       4.36434497E-08
   1.34500003       1.25203012E-08
   1.35599995      -3.98750899E-08
   1.36699998      -5.18133554E-08
   1.37800002      -3.10452375E-09
   1.38900006       8.78955309E-09
