 -0.800000012       0.00000000
 -0.788999975       0.00000000
 -0.777999997       0.00000000
 -0.767000020       0.00000000
 -0.755999982       1.30535860E-11
 -0.745000005      -6.25098723E-11
 -0.734000027       2.54223365E-10
 -0.722999990      -4.68938610E-10
 -0.712000012      -5.05171516E-10
 -0.700999975       3.56243990E-09
 -0.689999998      -3.95572064E-09
 -0.679000020      -7.21774729E-09
 -0.667999983       2.33126247E-08
 -0.657000005      -6.26162366E-09
 -0.646000028      -6.15047213E-08
 -0.634999990       7.16300050E-08
 -0.624000013       9.81995996E-08
 -0.612999976      -2.00308122E-07
 -0.601999998      -1.02556633E-07
 -0.591000021       2.78603437E-07
 -0.579999983       1.19521715E-07
 -0.569000006       7.48067848E-08
 -0.558000028      -3.75728916E-07
 -0.546999991      -1.59406773E-06
 -0.536000013       1.18636990E-06
 -0.524999976       5.16412956E-06
 -0.513999999      -2.42318674E-06
 -0.503000021      -1.09521516E-05
 -0.492000014       2.82992687E-06
 -0.481000006       1.67531998E-05
 -0.469999999      -4.60855915E-07
 -0.458999991      -1.67293965E-05
 -0.448000014      -4.34213052E-06
 -0.437000006       3.82202552E-06
 -0.425999999       5.18020397E-06
 -0.414999992       2.14486208E-05
 -0.404000014       7.05247248E-06
 -0.393000007      -4.28271851E-05
 -0.381999999      -2.82816745E-05
 -0.370999992       4.18867603E-05
 -0.360000014       3.68739020E-05
 -0.349000007      -2.79782398E-05
 -0.338000000      -3.45859989E-05
 -0.326999992       8.37361222E-06
 -0.316000015       4.48866194E-05
 -0.305000007       6.49620706E-05
 -0.294000000       3.83659317E-05
 -0.282999992       1.19155193E-05
 -0.272000015       9.50043395E-05
 -0.261000007       1.87736630E-04
 -0.250000000       1.37994590E-04
 -0.238999993       1.13908252E-04
 -0.228000000       2.93439807E-04
 -0.216999993       4.97214554E-04
 -0.206000000       5.82790992E-04
 -0.194999993       6.93206734E-04
 -0.184000000       9.09759954E-04
 -0.172999993       1.22342736E-03
 -0.162000000       1.72262173E-03
 -0.150999993       2.36278772E-03
 -0.140000001       2.97092134E-03
 -0.128999993       3.67200631E-03
 -0.118000001       4.74886457E-03
 -0.107000001       6.18977519E-03
  -9.60000008E-02   7.88355432E-03
  -8.50000009E-02   9.91001446E-03
  -7.40000010E-02   1.23557774E-02
  -6.30000010E-02   1.52939064E-02
  -5.20000011E-02   1.89092997E-02
  -4.10000011E-02   2.32649110E-02
  -2.99999993E-02   2.82733198E-02
  -1.89999994E-02   3.40647586E-02
  -8.00000038E-03   4.08859551E-02
   3.00000003E-03   4.87358756E-02
   1.40000004E-02   5.75578436E-02
   2.50000004E-02   6.74395785E-02
   3.59999985E-02   7.83791989E-02
   4.69999984E-02   9.03271362E-02
   5.79999983E-02  0.103364818
   6.89999983E-02  0.117382050
   7.99999982E-02  0.131964162
   9.09999982E-02  0.146858945
  0.101999998      0.161985591
  0.112999998      0.176988915
  0.123999998      0.191320509
  0.135000005      0.204485685
  0.145999998      0.215887800
  0.157000005      0.224857002
  0.167999998      0.230861425
  0.179000005      0.233303338
  0.189999998      0.231386438
  0.201000005      0.224439159
  0.211999997      0.211980820
  0.223000005      0.193493724
  0.233999997      0.168549314
  0.245000005      0.136978567
  0.256000012       9.86954495E-02
  0.266999990       5.36903329E-02
  0.277999997       2.28263671E-03
  0.289000005      -5.49209788E-02
  0.300000012     -0.117232479
  0.310999990     -0.183809921
  0.321999997     -0.253557473
  0.333000004     -0.325256228
  0.344000012     -0.397619545
  0.354999989     -0.469193667
  0.365999997     -0.538446009
  0.377000004     -0.603976250
  0.388000011     -0.664480746
  0.398999989     -0.718656719
  0.409999996     -0.765357196
  0.421000004     -0.803673446
  0.432000011     -0.832784474
  0.442999989     -0.852006555
  0.453999996     -0.860985458
  0.465000004     -0.859577179
  0.476000011     -0.847688377
  0.486999989     -0.825370491
  0.497999996     -0.792789280
  0.509000003     -0.750088871
  0.519999981     -0.697503626
  0.531000018     -0.635381579
  0.541999996     -0.563943207
  0.552999973     -0.483296692
  0.564000010     -0.393661827
  0.574999988     -0.295316041
  0.586000025     -0.188501522
  0.597000003      -7.35737383E-02
  0.607999980       4.89234179E-02
  0.619000018      0.178284600
  0.629999995      0.313535154
  0.640999973      0.453323156
  0.652000010      0.595927119
  0.662999988      0.739269197
  0.674000025      0.880935907
  0.685000002       1.01819289
  0.695999980       1.14795935
  0.707000017       1.26688683
  0.717999995       1.37154984
  0.728999972       1.45858371
  0.740000010       1.52479875
  0.750999987       1.56733000
  0.762000024       1.58375859
  0.773000002       1.57223654
  0.783999979       1.53164804
  0.795000017       1.46171880
  0.805999994       1.36308253
  0.816999972       1.23730910
  0.828000009       1.08684099
  0.838999987      0.914925575
  0.850000024      0.725574732
  0.861000001      0.523417175
  0.871999979      0.313506633
  0.883000016      0.101182193
  0.893999994     -0.108147927
  0.904999971     -0.309276044
  0.916000009     -0.497346491
  0.926999986     -0.667959213
  0.938000023     -0.817329407
  0.949000001     -0.942466497
  0.959999979      -1.04132569
  0.971000016      -1.11281049
  0.981999993      -1.15664625
  0.992999971      -1.17337370
   1.00399995      -1.16438687
   1.01499999      -1.13176990
   1.02600002      -1.07815123
   1.03699994      -1.00668573
   1.04799998     -0.920836568
   1.05900002     -0.824095190
   1.07000005     -0.719971597
   1.08099997     -0.611940622
   1.09200001     -0.503190041
   1.10300004     -0.396562189
   1.11399996     -0.294577509
   1.12500000     -0.199274525
   1.13600004     -0.112202466
   1.14699996      -3.45720872E-02
   1.15799999       3.28455567E-02
   1.16900003       8.98135155E-02
   1.17999995      0.136427835
   1.19099998      0.173027530
   1.20200002      0.200259417
   1.21300006      0.218924671
   1.22399998      0.229852170
   1.23500001      0.234033108
   1.24600005      0.232599914
   1.25699997      0.226600721
   1.26800001      0.216977850
   1.27900004      0.204644606
   1.28999996      0.190412998
   1.30100000      0.174968988
   1.31200004      0.158937082
   1.32299995      0.142831758
   1.33399999      0.127022654
   1.34500003      0.111833692
   1.35599995       9.75447446E-02
   1.36699998       8.42992440E-02
   1.37800002       7.21619576E-02
   1.38900006       6.11976236E-02
