 -0.959999979       0.00000000
 -0.925000012       0.00000000
 -0.889999986      -1.20888895E-13
 -0.855000019      -3.12961844E-11
 -0.819999993      -2.50420629E-10
 -0.785000026      -1.00198294E-10
 -0.750000000       1.35250311E-09
 -0.714999974       1.28774338E-10
 -0.680000007      -4.84235207E-10
 -0.644999981       3.33555672E-09
 -0.610000014      -5.18817256E-09
 -0.574999988      -6.36634212E-09
 -0.540000021       1.10281348E-08
 -0.504999995       3.98391542E-08
 -0.469999999      -4.64905732E-08
 -0.435000002      -7.97639501E-08
 -0.400000006      -1.05223933E-07
 -0.365000010       1.75978769E-07
 -0.330000013       2.13122178E-07
 -0.294999987      -2.93692125E-07
 -0.259999990       3.25908246E-07
 -0.224999994       2.01192464E-07
 -0.189999998      -6.17371768E-07
 -0.155000001       4.82767177E-07
 -0.119999997       5.98221447E-07
  -8.50000009E-02  -9.67674964E-07
  -5.00000007E-02  -8.03738658E-07
  -1.49999997E-02   1.73966384E-07
   1.99999996E-02   9.06523724E-07
   5.49999997E-02  -4.33506415E-07
   9.00000036E-02  -8.15614499E-07
  0.125000000       2.07369726E-06
  0.159999996       3.46745907E-07
  0.194999993      -2.71181830E-06
  0.230000004       8.76708270E-07
  0.264999986       3.19733999E-06
  0.300000012      -1.14286422E-06
  0.335000008      -3.04989680E-06
  0.370000005       7.16177340E-07
  0.405000001       2.50444123E-06
  0.439999998      -6.31274588E-08
  0.474999994      -1.29485795E-06
  0.509999990      -2.94071128E-07
  0.545000017      -1.57180432E-06
  0.579999983      -1.61368337E-06
  0.615000010       2.22671338E-06
  0.649999976       3.12493421E-06
  0.685000002      -8.17130228E-07
  0.720000029      -3.22110191E-06
  0.754999995      -3.19983911E-07
  0.790000021       1.83883742E-06
  0.824999988      -9.51148820E-07
  0.860000014      -1.98924818E-06
  0.894999981       2.49740492E-06
  0.930000007       4.19048274E-06
  0.964999974      -8.12758003E-07
   1.00000000      -3.89517618E-06
   1.03499997      -1.12091516E-06
   1.07000005       1.55856674E-06
   1.10500002       1.37578502E-06
   1.13999999       8.76290358E-07
   1.17499995       4.14401370E-07
   1.21000004      -6.98445888E-07
   1.24500000      -1.07161100E-06
   1.27999997      -2.32456685E-07
   1.31500006       3.61665172E-07
   1.35000002      -2.42909568E-08
   1.38499999      -2.09254424E-07
   1.41999996       5.76539719E-07
   1.45500004       6.31431931E-07
   1.49000001      -1.09489145E-06
   1.52499998      -1.81122482E-06
   1.55999994       9.44459941E-08
   1.59500003       1.37535642E-06
   1.63000000       5.15378133E-07
