 -0.800000012       0.00000000
 -0.788999975       0.00000000
 -0.777999997       0.00000000
 -0.767000020       0.00000000
 -0.755999982      -3.30543882E-12
 -0.745000005      -7.23186303E-11
 -0.734000027       5.49395751E-10
 -0.722999990      -1.30755673E-09
 -0.712000012      -7.47664264E-10
 -0.700999975       9.16009757E-09
 -0.689999998      -1.08182245E-08
 -0.679000020      -2.31805757E-08
 -0.667999983       6.38031281E-08
 -0.657000005       1.15892025E-08
 -0.646000028      -1.88275848E-07
 -0.634999990       1.08340949E-07
 -0.624000013       3.55797454E-07
 -0.612999976      -4.23419607E-07
 -0.601999998      -4.04387038E-07
 -0.591000021       8.62442050E-07
 -0.579999983       4.14119228E-09
 -0.569000006      -9.86834721E-07
 -0.558000028       1.28847557E-06
 -0.546999991       1.05406581E-08
 -0.536000013      -3.82213193E-06
 -0.524999976       2.58965406E-06
 -0.513999999       7.26237386E-06
 -0.503000021      -6.05057221E-06
 -0.492000014      -9.46762702E-06
 -0.481000006       8.26458654E-06
 -0.469999999       5.91093294E-06
 -0.458999991      -8.16282500E-06
 -0.448000014       7.34564992E-06
 -0.437000006       8.28854172E-06
 -0.425999999      -2.62977792E-05
 -0.414999992      -1.09482253E-05
 -0.404000014       3.61385537E-05
 -0.393000007       8.55521375E-06
 -0.381999999      -2.53604685E-05
 -0.370999992       1.23591053E-05
 -0.360000014       2.79022220E-06
 -0.349000007      -4.56531889E-05
 -0.338000000       1.97999289E-05
 -0.326999992       6.90837333E-05
 -0.316000015      -4.59051553E-05
 -0.305000007      -8.76192789E-05
 -0.294000000       2.76311803E-05
 -0.282999992       1.78358205E-05
 -0.272000015      -7.34358982E-05
 -0.261000007      -2.99681460E-06
 -0.250000000       2.68594176E-05
 -0.238999993      -1.26151281E-04
 -0.228000000      -1.42567660E-04
 -0.216999993      -1.17222180E-05
 -0.206000000      -6.94020273E-05
 -0.194999993      -2.10827740E-04
 -0.184000000      -2.14133499E-04
 -0.172999993      -2.62625428E-04
 -0.162000000      -3.94179719E-04
 -0.150999993      -4.28437634E-04
 -0.140000001      -5.17441833E-04
 -0.128999993      -7.65509438E-04
 -0.118000001      -9.18701524E-04
 -0.107000001      -1.02569489E-03
  -9.60000008E-02  -1.35525153E-03
  -8.50000009E-02  -1.71610748E-03
  -7.40000010E-02  -1.91837305E-03
  -6.30000010E-02  -2.22584116E-03
  -5.20000011E-02  -2.68883095E-03
  -4.10000011E-02  -3.06093274E-03
  -2.99999993E-02  -3.42781912E-03
  -1.89999994E-02  -3.92199773E-03
  -8.00000038E-03  -4.31035133E-03
   3.00000003E-03  -4.50072158E-03
   1.40000004E-02  -4.68280585E-03
   2.50000004E-02  -4.80128406E-03
   3.59999985E-02  -4.61078854E-03
   4.69999984E-02  -4.06413572E-03
   5.79999983E-02  -3.18875443E-03
   6.89999983E-02  -1.85801857E-03
   7.99999982E-02   1.38065559E-04
   9.09999982E-02   2.92677968E-03
  0.101999998       6.50747726E-03
  0.112999998       1.09515283E-02
  0.123999998       1.64838098E-02
  0.135000005       2.31679752E-02
  0.145999998       3.08971684E-02
  0.157000005       3.97650599E-02
  0.167999998       4.98534068E-02
  0.179000005       6.08672276E-02
  0.189999998       7.25350380E-02
  0.201000005       8.47907662E-02
  0.211999997       9.72326994E-02
  0.223000005      0.109144174
  0.233999997      0.119962797
  0.245000005      0.129052088
  0.256000012      0.135430530
  0.266999990      0.138066322
  0.277999997      0.135888919
  0.289000005      0.127612069
  0.300000012      0.111991934
  0.310999990       8.78697261E-02
  0.321999997       5.38930185E-02
  0.333000004       8.75019841E-03
  0.344000012      -4.85341065E-02
  0.354999989     -0.118833698
  0.365999997     -0.202874750
  0.377000004     -0.300841421
  0.388000011     -0.412518442
  0.398999989     -0.537497520
  0.409999996     -0.674722731
  0.421000004     -0.822208047
  0.432000011     -0.977412283
  0.442999989      -1.13737178
  0.453999996      -1.29833615
  0.465000004      -1.45569599
  0.476000011      -1.60428095
  0.486999989      -1.73842871
  0.497999996      -1.85189652
  0.509000003      -1.93810642
  0.519999981      -1.99051809
  0.531000018      -2.00266790
  0.541999996      -1.96825337
  0.552999973      -1.88162434
  0.564000010      -1.73817122
  0.574999988      -1.53442776
  0.586000025      -1.26838470
  0.597000003     -0.939864337
  0.607999980     -0.550574780
  0.619000018     -0.104337968
  0.629999995      0.392521083
  0.640999973      0.931340635
  0.652000010       1.50144923
  0.662999988       2.09004760
  0.674000025       2.68238211
  0.685000002       3.26245236
  0.695999980       3.81337404
  0.707000017       4.31764174
  0.717999995       4.75802040
  0.728999972       5.11839008
  0.740000010       5.38410997
  0.750999987       5.54265738
  0.762000024       5.58448219
  0.773000002       5.50335789
  0.783999979       5.29661274
  0.795000017       4.96561337
  0.805999994       4.51587009
  0.816999972       3.95678210
  0.828000009       3.30151153
  0.838999987       2.56662774
  0.850000024       1.77128851
  0.861000001      0.936651528
  0.871999979       8.53997171E-02
  0.883000016     -0.759346664
  0.893999994      -1.57520115
  0.904999971      -2.34099817
  0.916000009      -3.03726339
  0.926999986      -3.64724112
  0.938000023      -4.15766811
  0.949000001      -4.55882835
  0.959999979      -4.84466171
  0.971000016      -5.01314449
  0.981999993      -5.06614590
  0.992999971      -5.00883055
   1.00399995      -4.84941387
   1.01499999      -4.59901237
   1.02600002      -4.27085447
   1.03699994      -3.87931919
   1.04799998      -3.43955827
   1.05900002      -2.96722221
   1.07000005      -2.47763348
   1.08099997      -1.98493779
   1.09200001      -1.50187635
   1.10300004      -1.03977871
   1.11399996     -0.608223200
   1.12500000     -0.214670315
   1.13600004      0.135518745
   1.14699996      0.438872963
   1.15799999      0.693716824
   1.16900003      0.900121033
   1.17999995       1.05968797
   1.19099998       1.17516816
   1.20200002       1.25011408
   1.21300006       1.28874195
   1.22399998       1.29580772
   1.23500001       1.27625167
   1.24600005       1.23489249
   1.25699997       1.17643523
   1.26800001       1.10537553
   1.27900004       1.02567554
   1.28999996      0.940744042
   1.30100000      0.853633285
   1.31200004      0.766879499
   1.32299995      0.682329834
   1.33399999      0.601445258
   1.34500003      0.525489390
   1.35599995      0.455276608
   1.36699998      0.391140491
   1.37800002      0.333203167
   1.38900006      0.281405658
