 -0.800000012       0.00000000
 -0.788999975       0.00000000
 -0.777999997       0.00000000
 -0.767000020      -5.43103756E-13
 -0.755999982      -1.35070817E-12
 -0.745000005      -2.97480096E-11
 -0.734000027       1.26382724E-10
 -0.722999990      -2.62792815E-10
 -0.712000012       3.91123828E-10
 -0.700999975       6.36762809E-10
 -0.689999998      -5.51778090E-09
 -0.679000020       7.11152426E-09
 -0.667999983       1.80886381E-08
 -0.657000005      -5.07907387E-08
 -0.646000028      -1.84573334E-08
 -0.634999990       1.73614112E-07
 -0.624000013      -6.40822932E-08
 -0.612999976      -3.87457618E-07
 -0.601999998       3.39363481E-07
 -0.591000021       5.81793984E-07
 -0.579999983      -8.53017752E-07
 -0.569000006      -4.43506906E-07
 -0.558000028       1.42995168E-06
 -0.546999991      -4.87687203E-07
 -0.536000013      -1.65257882E-06
 -0.524999976       2.42359988E-06
 -0.513999999       1.09077996E-06
 -0.503000021      -4.50607649E-06
 -0.492000014       5.86390570E-07
 -0.481000006       4.26308043E-06
 -0.469999999      -4.12344934E-06
 -0.458999991       8.17334978E-07
 -0.448000014       1.04908495E-05
 -0.437000006      -9.47313583E-06
 -0.425999999      -1.71780139E-05
 -0.414999992       1.66676600E-05
 -0.404000014       1.50115829E-05
 -0.393000007      -2.18712703E-05
 -0.381999999       1.30473461E-06
 -0.370999992       2.80026870E-05
 -0.360000014      -2.12146260E-05
 -0.349000007      -2.14007796E-05
 -0.338000000       4.67876198E-05
 -0.326999992       1.38582186E-06
 -0.316000015      -8.70927688E-05
 -0.305000007      -2.77020954E-05
 -0.294000000       1.34506654E-05
 -0.282999992      -9.48073211E-05
 -0.272000015      -1.19896009E-04
 -0.261000007      -5.76123275E-05
 -0.250000000      -1.58067836E-04
 -0.238999993      -2.84305046E-04
 -0.228000000      -2.54515442E-04
 -0.216999993      -3.35417688E-04
 -0.206000000      -5.99211839E-04
 -0.194999993      -7.53665401E-04
 -0.184000000      -9.01476888E-04
 -0.172999993      -1.30798889E-03
 -0.162000000      -1.76735758E-03
 -0.150999993      -2.18350068E-03
 -0.140000001      -2.87557766E-03
 -0.128999993      -3.83262290E-03
 -0.118000001      -4.83254204E-03
 -0.107000001      -6.10874733E-03
  -9.60000008E-02  -7.86336046E-03
  -8.50000009E-02  -9.90132615E-03
  -7.40000010E-02  -1.23001961E-02
  -6.30000010E-02  -1.53577784E-02
  -5.20000011E-02  -1.89868510E-02
  -4.10000011E-02  -2.31554452E-02
  -2.99999993E-02  -2.82036811E-02
  -1.89999994E-02  -3.41784991E-02
  -8.00000038E-03  -4.09139171E-02
   3.00000003E-03  -4.86541837E-02
   1.40000004E-02  -5.75773269E-02
   2.50000004E-02  -6.74439669E-02
   3.59999985E-02  -7.83076882E-02
   4.69999984E-02  -9.04236957E-02
   5.79999983E-02 -0.103510499
   6.89999983E-02 -0.117259555
   7.99999982E-02 -0.131821901
   9.09999982E-02 -0.146983281
  0.101999998     -0.162089854
  0.112999998     -0.176942259
  0.123999998     -0.191380188
  0.135000005     -0.204559296
  0.145999998     -0.215779632
  0.157000005     -0.224848494
  0.167999998     -0.231062740
  0.179000005     -0.233353555
  0.189999998     -0.231291518
  0.201000005     -0.224523276
  0.211999997     -0.212104365
  0.223000005     -0.193447754
  0.233999997     -0.168589652
  0.245000005     -0.137168899
  0.256000012      -9.87200588E-02
  0.266999990      -5.36184534E-02
  0.277999997      -2.39902688E-03
  0.289000005       5.48063666E-02
  0.300000012      0.117321089
  0.310999990      0.183863878
  0.321999997      0.253542542
  0.333000004      0.325437754
  0.344000012      0.397876769
  0.354999989      0.469296545
  0.365999997      0.538634360
  0.377000004      0.604400754
  0.388000011      0.664879024
  0.398999989      0.719025671
  0.409999996      0.765906096
  0.421000004      0.804206491
  0.432000011      0.833119750
  0.442999989      0.852401674
  0.453999996      0.861483037
  0.465000004      0.859869897
  0.476000011      0.847793818
  0.486999989      0.825438619
  0.497999996      0.792605996
  0.509000003      0.749562085
  0.519999981      0.696891904
  0.531000018      0.634657502
  0.541999996      0.562846422
  0.552999973      0.481971323
  0.564000010      0.392383367
  0.574999988      0.293980271
  0.586000025      0.187032878
  0.597000003       7.22345784E-02
  0.607999980      -4.99994941E-02
  0.619000018     -0.179196969
  0.629999995     -0.314167917
  0.640999973     -0.453441769
  0.652000010     -0.595592499
  0.662999988     -0.738623738
  0.674000025     -0.879890919
  0.685000002      -1.01669443
  0.695999980      -1.14614403
  0.707000017      -1.26483750
  0.717999995      -1.36933434
  0.728999972      -1.45641744
  0.740000010      -1.52282906
  0.750999987      -1.56557393
  0.762000024      -1.58236206
  0.773000002      -1.57135737
  0.783999979      -1.53123224
  0.795000017      -1.46177840
  0.805999994      -1.36378610
  0.816999972      -1.23858345
  0.828000009      -1.08842945
  0.838999987     -0.916800380
  0.850000024     -0.727742672
  0.861000001     -0.525612772
  0.871999979     -0.315505385
  0.883000016     -0.102996230
  0.893999994      0.106611848
  0.904999971      0.308257371
  0.916000009      0.496853858
  0.926999986      0.667831540
  0.938000023      0.817626476
  0.949000001      0.943343520
  0.959999979       1.04265249
  0.971000016       1.11434662
  0.981999993       1.15834689
  0.992999971       1.17516935
   1.00399995       1.16604090
   1.01499999       1.13320839
   1.02600002       1.07946920
   1.03699994       1.00777161
   1.04799998      0.921497583
   1.05900002      0.824375808
   1.07000005      0.719930589
   1.08099997      0.611481905
   1.09200001      0.502345085
   1.10300004      0.395476371
   1.11399996      0.293240875
   1.12500000      0.197700873
   1.13600004      0.110596851
   1.14699996       3.30113247E-02
   1.15799999      -3.44697535E-02
   1.16900003      -9.14284587E-02
   1.17999995     -0.137830332
   1.19099998     -0.174185798
   1.20200002     -0.201144844
   1.21300006     -0.219354689
   1.22399998     -0.229799241
   1.23500001     -0.233655557
   1.24600005     -0.231872097
   1.25699997     -0.225399956
   1.26800001     -0.215401918
   1.27900004     -0.202811956
   1.28999996     -0.188295752
   1.30100000     -0.172681615
   1.31200004     -0.156716645
   1.32299995     -0.140728489
   1.33399999     -0.125078395
   1.34500003     -0.110284276
   1.35599995      -9.64833125E-02
   1.36699998      -8.35960582E-02
   1.37800002      -7.18459114E-02
   1.38900006      -6.13959767E-02
