 -0.800000012       0.00000000
 -0.788999975       0.00000000
 -0.777999997       0.00000000
 -0.767000020       5.43103756E-13
 -0.755999982       1.35070893E-12
 -0.745000005       2.97479992E-11
 -0.734000027      -1.26382710E-10
 -0.722999990       2.62792732E-10
 -0.712000012      -3.91123745E-10
 -0.700999975      -6.36762865E-10
 -0.689999998       5.51777912E-09
 -0.679000020      -7.11152648E-09
 -0.667999983      -1.80886310E-08
 -0.657000005       5.07907387E-08
 -0.646000028       1.84572819E-08
 -0.634999990      -1.73614097E-07
 -0.624000013       6.40824993E-08
 -0.612999976       3.87457504E-07
 -0.601999998      -3.39363964E-07
 -0.591000021      -5.81793586E-07
 -0.579999983       8.53018207E-07
 -0.569000006       4.43506025E-07
 -0.558000028      -1.42995134E-06
 -0.546999991       4.87688339E-07
 -0.536000013       1.65257779E-06
 -0.524999976      -2.42359943E-06
 -0.513999999      -1.09077791E-06
 -0.503000021       4.50607195E-06
 -0.492000014      -5.86393071E-07
 -0.481000006      -4.26306815E-06
 -0.469999999       4.12344616E-06
 -0.458999991      -8.17361581E-07
 -0.448000014      -1.04908331E-05
 -0.437000006       9.47317312E-06
 -0.425999999       1.71779739E-05
 -0.414999992      -1.66677055E-05
 -0.404000014      -1.50115211E-05
 -0.393000007       2.18713340E-05
 -0.381999999      -1.30480669E-06
 -0.370999992      -2.80027889E-05
 -0.360000014       2.12147370E-05
 -0.349000007       2.14009888E-05
 -0.338000000      -4.67878526E-05
 -0.326999992      -1.38624125E-06
 -0.316000015       8.70931981E-05
 -0.305000007       2.77027684E-05
 -0.294000000      -1.34511729E-05
 -0.282999992       9.48066736E-05
 -0.272000015       1.19896482E-04
 -0.261000007       5.76125531E-05
 -0.250000000       1.58067254E-04
 -0.238999993       2.84305424E-04
 -0.228000000       2.54516955E-04
 -0.216999993       3.35418212E-04
 -0.206000000       5.99208928E-04
 -0.194999993       7.53661268E-04
 -0.184000000       9.01480787E-04
 -0.172999993       1.30799774E-03
 -0.162000000       1.76735327E-03
 -0.150999993       2.18349043E-03
 -0.140000001       2.87558720E-03
 -0.128999993       3.83263431E-03
 -0.118000001       4.83252760E-03
 -0.107000001       6.10874407E-03
  -9.60000008E-02   7.86337722E-03
  -8.50000009E-02   9.90129821E-03
  -7.40000010E-02   1.23001626E-02
  -6.30000010E-02   1.53578473E-02
  -5.20000011E-02   1.89869162E-02
  -4.10000011E-02   2.31553763E-02
  -2.99999993E-02   2.82036290E-02
  -1.89999994E-02   3.41785513E-02
  -8.00000038E-03   4.09139432E-02
   3.00000003E-03   4.86541726E-02
   1.40000004E-02   5.75774126E-02
   2.50000004E-02   6.74440488E-02
   3.59999985E-02   7.83076063E-02
   4.69999984E-02   9.04235914E-02
   5.79999983E-02  0.103510544
   6.89999983E-02  0.117259681
   7.99999982E-02  0.131821901
   9.09999982E-02  0.146983191
  0.101999998      0.162089750
  0.112999998      0.176942140
  0.123999998      0.191379920
  0.135000005      0.204559237
  0.145999998      0.215780050
  0.157000005      0.224848911
  0.167999998      0.231062785
  0.179000005      0.233353212
  0.189999998      0.231291682
  0.201000005      0.224523813
  0.211999997      0.212104082
  0.223000005      0.193446800
  0.233999997      0.168589115
  0.245000005      0.137169391
  0.256000012       9.87203792E-02
  0.266999990       5.36178946E-02
  0.277999997       2.39893585E-03
  0.289000005      -5.48056774E-02
  0.300000012     -0.117321402
  0.310999990     -0.183865011
  0.321999997     -0.253542334
  0.333000004     -0.325436860
  0.344000012     -0.397877067
  0.354999989     -0.469296515
  0.365999997     -0.538633287
  0.377000004     -0.604401529
  0.388000011     -0.664881468
  0.398999989     -0.719026208
  0.409999996     -0.765904009
  0.421000004     -0.804204822
  0.432000011     -0.833120406
  0.442999989     -0.852402925
  0.453999996     -0.861482978
  0.465000004     -0.859869480
  0.476000011     -0.847794890
  0.486999989     -0.825439870
  0.497999996     -0.792603672
  0.509000003     -0.749558270
  0.519999981     -0.696891785
  0.531000018     -0.634659350
  0.541999996     -0.562847376
  0.552999973     -0.481973141
  0.564000010     -0.392384201
  0.574999988     -0.293977261
  0.586000025     -0.187032893
  0.597000003      -7.22404420E-02
  0.607999980       4.99982350E-02
  0.619000018      0.179202154
  0.629999995      0.314170629
  0.640999973      0.453440517
  0.652000010      0.595592082
  0.662999988      0.738626599
  0.674000025      0.879893243
  0.685000002       1.01669192
  0.695999980       1.14614236
  0.707000017       1.26484168
  0.717999995       1.36933696
  0.728999972       1.45641232
  0.740000010       1.52282381
  0.750999987       1.56557679
  0.762000024       1.58236694
  0.773000002       1.57135487
  0.783999979       1.53122830
  0.795000017       1.46178091
  0.805999994       1.36378932
  0.816999972       1.23858261
  0.828000009       1.08842766
  0.838999987      0.916800261
  0.850000024      0.727742493
  0.861000001      0.525609910
  0.871999979      0.315501660
  0.883000016      0.102994628
  0.893999994     -0.106607631
  0.904999971     -0.308252126
  0.916000009     -0.496858746
  0.926999986     -0.667840600
  0.938000023     -0.817624032
  0.949000001     -0.943332553
  0.959999979      -1.04265153
  0.971000016      -1.11435282
  0.981999993      -1.15834332
  0.992999971      -1.17516077
   1.00399995      -1.16604447
   1.01499999      -1.13321817
   1.02600002      -1.07946670
   1.03699994      -1.00776410
   1.04799998     -0.921501040
   1.05900002     -0.824381709
   1.07000005     -0.719925582
   1.08099997     -0.611476719
   1.09200001     -0.502350330
   1.10300004     -0.395479113
   1.11399996     -0.293234527
   1.12500000     -0.197698534
   1.13600004     -0.110602476
   1.14699996      -3.30131613E-02
   1.15799999       3.44720446E-02
   1.16900003       9.14238915E-02
   1.17999995      0.137823611
   1.19099998      0.174189404
   1.20200002      0.201151386
   1.21300006      0.219350293
   1.22399998      0.229792699
   1.23500001      0.233660951
   1.24600005      0.231879488
   1.25699997      0.225397602
   1.26800001      0.215402082
   1.27900004      0.202822819
   1.28999996      0.188297778
   1.30100000      0.172666237
   1.31200004      0.156707287
   1.32299995      0.140734926
   1.33399999      0.125080496
   1.34500003      0.110276707
   1.35599995       9.64838564E-02
   1.36699998       8.36054236E-02
   1.37800002       7.18481466E-02
   1.38900006       6.13911226E-02
