 -0.800000012       0.00000000
 -0.788999975       0.00000000
 -0.777999997       0.00000000
 -0.767000020       0.00000000
 -0.755999982       0.00000000
 -0.745000005      -1.86506236E-12
 -0.734000027      -4.50966348E-11
 -0.722999990       2.12333096E-10
 -0.712000012      -2.37531328E-10
 -0.700999975      -8.19547152E-10
 -0.689999998       2.09493889E-09
 -0.679000020       8.22949986E-10
 -0.667999983      -6.75424472E-09
 -0.657000005       2.54648658E-09
 -0.646000028       1.23074564E-08
 -0.634999990      -1.18395080E-08
 -0.624000013      -1.14144934E-08
 -0.612999976       2.39219275E-08
 -0.601999998      -6.07151751E-09
 -0.591000021      -2.65174105E-08
 -0.579999983       4.08636289E-08
 -0.569000006       3.00004327E-10
 -0.558000028      -7.16043260E-08
 -0.546999991       6.70545077E-08
 -0.536000013       5.32597220E-08
 -0.524999976      -1.63386915E-07
 -0.513999999       5.30553450E-08
 -0.503000021       2.26932016E-07
 -0.492000014      -2.49595843E-07
 -0.481000006      -1.55338910E-07
 -0.469999999       4.83180941E-07
 -0.458999991      -1.40715940E-07
 -0.448000014      -6.68455414E-07
 -0.437000006       6.15135548E-07
 -0.425999999       6.63177900E-07
 -0.414999992      -1.08623851E-06
 -0.404000014      -3.22916748E-07
 -0.393000007       1.33434389E-06
 -0.381999999      -3.66006731E-07
 -0.370999992      -1.21836240E-06
 -0.360000014       1.13773456E-06
 -0.349000007       5.90332434E-07
 -0.338000000      -1.76458400E-06
 -0.326999992       3.41211035E-07
 -0.316000015       1.95423763E-06
 -0.305000007      -9.94902621E-07
 -0.294000000      -7.10579400E-07
 -0.282999992       2.96163330E-06
 -0.272000015       1.84944258E-06
 -0.261000007       1.21552020E-07
 -0.250000000       3.60576541E-06
 -0.238999993       5.54060989E-06
 -0.228000000       5.00282431E-06
 -0.216999993       9.11560892E-06
 -0.206000000       1.40460634E-05
 -0.194999993       1.58613711E-05
 -0.184000000       2.23566385E-05
 -0.172999993       3.36736775E-05
 -0.162000000       4.29804641E-05
 -0.150999993       5.61992965E-05
 -0.140000001       7.84533404E-05
 -0.128999993       1.02842307E-04
 -0.118000001       1.32467336E-04
 -0.107000001       1.77671376E-04
  -9.60000008E-02   2.33481609E-04
  -8.50000009E-02   2.96957442E-04
  -7.40000010E-02   3.82671773E-04
  -6.30000010E-02   4.95904416E-04
  -5.20000011E-02   6.29462767E-04
  -4.10000011E-02   7.92186125E-04
  -2.99999993E-02   9.99589334E-04
  -1.89999994E-02   1.25158101E-03
  -8.00000038E-03   1.55063695E-03
   3.00000003E-03   1.91373751E-03
   1.40000004E-02   2.35206378E-03
   2.50000004E-02   2.86893873E-03
   3.59999985E-02   3.47575056E-03
   4.69999984E-02   4.18838300E-03
   5.79999983E-02   5.01859700E-03
   6.89999983E-02   5.97603759E-03
   7.99999982E-02   7.06895906E-03
   9.09999982E-02   8.30710027E-03
  0.101999998       9.70254280E-03
  0.112999998       1.12583777E-02
  0.123999998       1.29699446E-02
  0.135000005       1.48393763E-02
  0.145999998       1.68642960E-02
  0.157000005       1.90213509E-02
  0.167999998       2.12846547E-02
  0.179000005       2.36349609E-02
  0.189999998       2.60329247E-02
  0.201000005       2.84162425E-02
  0.211999997       3.07254195E-02
  0.223000005       3.28966714E-02
  0.233999997       3.48381400E-02
  0.245000005       3.64406668E-02
  0.256000012       3.75956371E-02
  0.266999990       3.81847434E-02
  0.277999997       3.80682051E-02
  0.289000005       3.70931551E-02
  0.300000012       3.51058729E-02
  0.310999990       3.19518968E-02
  0.321999997       2.74688005E-02
  0.333000004       2.14896705E-02
  0.344000012       1.38610769E-02
  0.354999989       4.45039244E-03
  0.365999997      -6.86393632E-03
  0.377000004      -2.01868042E-02
  0.388000011      -3.55812982E-02
  0.398999989      -5.30614890E-02
  0.409999996      -7.26034418E-02
  0.421000004      -9.41336676E-02
  0.432000011     -0.117501326
  0.442999989     -0.142480120
  0.453999996     -0.168785796
  0.465000004     -0.196057945
  0.476000011     -0.223833457
  0.486999989     -0.251569778
  0.497999996     -0.278673500
  0.509000003     -0.304477483
  0.519999981     -0.328231007
  0.531000018     -0.349150002
  0.541999996     -0.366449118
  0.552999973     -0.379327446
  0.564000010     -0.386987895
  0.574999988     -0.388695538
  0.586000025     -0.383805752
  0.597000003     -0.371771365
  0.607999980     -0.352175444
  0.619000018     -0.324770480
  0.629999995     -0.289502025
  0.640999973     -0.246522322
  0.652000010     -0.196198374
  0.662999988     -0.139120400
  0.674000025      -7.61098489E-02
  0.685000002      -8.20453838E-03
  0.695999980       6.33729100E-02
  0.707000017      0.137232736
  0.717999995      0.211842686
  0.728999972      0.285588533
  0.740000010      0.356829405
  0.750999987      0.423924476
  0.762000024      0.485286057
  0.773000002      0.539461076
  0.783999979      0.585173666
  0.795000017      0.621339560
  0.805999994      0.647115290
  0.816999972      0.661954522
  0.828000009      0.665610194
  0.838999987      0.658122003
  0.850000024      0.639824688
  0.861000001      0.611347079
  0.871999979      0.573574901
  0.883000016      0.527612150
  0.893999994      0.474743932
  0.904999971      0.416388005
  0.916000009      0.354046911
  0.926999986      0.289261729
  0.938000023      0.223554045
  0.949000001      0.158372611
  0.959999979       9.50621963E-02
  0.971000016       3.48350517E-02
  0.981999993      -2.12672129E-02
  0.992999971      -7.23990202E-02
   1.00399995     -0.117913604
   1.01499999     -0.157359868
   1.02600002     -0.190484762
   1.03699994     -0.217229858
   1.04799998     -0.237708494
   1.05900002     -0.252176046
   1.07000005     -0.261013567
   1.08099997     -0.264708728
   1.09200001     -0.263818264
   1.10300004     -0.258938015
   1.11399996     -0.250693977
   1.12500000     -0.239721328
   1.13600004     -0.226628125
   1.14699996     -0.211980551
   1.15799999     -0.196307674
   1.16900003     -0.180091068
   1.17999995     -0.163742065
   1.19099998     -0.147599161
   1.20200002     -0.131946310
   1.21300006     -0.117018737
   1.22399998     -0.102986448
   1.23500001      -8.99512544E-02
   1.24600005      -7.79761672E-02
   1.25699997      -6.71040788E-02
   1.26800001      -5.73385991E-02
   1.27900004      -4.86357026E-02
   1.28999996      -4.09385115E-02
   1.30100000      -3.42005193E-02
   1.31200004      -2.83599142E-02
   1.32299995      -2.33242847E-02
   1.33399999      -1.90065112E-02
   1.34500003      -1.53467478E-02
   1.35599995      -1.22784255E-02
   1.36699998      -9.71241109E-03
   1.37800002      -7.57818157E-03
   1.38900006      -5.83732314E-03
