 -0.959999979       0.00000000
 -0.925000012       0.00000000
 -0.889999986       2.50833687E-09
 -0.855000019       2.58473403E-08
 -0.819999993       1.16054217E-07
 -0.785000026       3.14121195E-07
 -0.750000000       5.96727546E-07
 -0.714999974       1.06913399E-06
 -0.680000007       2.34137156E-06
 -0.644999981       5.29281215E-06
 -0.610000014       1.04816127E-05
 -0.574999988       1.87033074E-05
 -0.540000021       3.20338331E-05
 -0.504999995       5.30759098E-05
 -0.469999999       8.33089798E-05
 -0.435000002       1.22740210E-04
 -0.400000006       1.69415798E-04
 -0.365000010       2.17533991E-04
 -0.330000013       2.56723084E-04
 -0.294999987       2.73318728E-04
 -0.259999990       2.51740770E-04
 -0.224999994       1.77335707E-04
 -0.189999998       4.21707991E-05
 -0.155000001      -1.50170905E-04
 -0.119999997      -3.82760743E-04
  -8.50000009E-02  -6.21537620E-04
  -5.00000007E-02  -8.06715223E-04
  -1.49999997E-02  -8.41884059E-04
   1.99999996E-02  -5.83958346E-04
   5.49999997E-02   1.55286150E-04
   9.00000036E-02   1.57008064E-03
  0.125000000       3.75644420E-03
  0.159999996       6.53595617E-03
  0.194999993       9.23436414E-03
  0.230000004       1.04862833E-02
  0.264999986       8.17906018E-03
  0.300000012      -3.46492568E-04
  0.335000008      -1.77729595E-02
  0.370000005      -4.59926128E-02
  0.405000001      -8.51543769E-02
  0.439999998     -0.132828206
  0.474999994     -0.183583409
  0.509999990     -0.229225650
  0.545000017     -0.259806395
  0.579999983     -0.265331358
  0.615000010     -0.237887934
  0.649999976     -0.173749432
  0.685000002      -7.49496743E-02
  0.720000029       5.01296706E-02
  0.754999995      0.187450260
  0.790000021      0.319298089
  0.824999988      0.427235991
  0.860000014      0.495437682
  0.894999981      0.513679564
  0.930000007      0.479303092
  0.964999974      0.397682935
   1.00000000      0.281105310
   1.03499997      0.146357164
   1.07000005       1.16135851E-02
   1.10500002     -0.106676802
   1.13999999     -0.196276978
   1.17499995     -0.250599086
   1.21000004     -0.268968374
   1.24500000     -0.255851001
   1.27999997     -0.219347104
   1.31500006     -0.169317573
   1.35000002     -0.115515493
   1.38499999      -6.60460740E-02
   1.41999996      -2.63867062E-02
   1.45500004       9.29844216E-04
   1.49000001       1.60128139E-02
   1.52499998       2.08743326E-02
   1.55999994       1.85210668E-02
   1.59500003       1.21330405E-02
   1.63000000       4.48120246E-03
