 -0.800000012       0.00000000
 -0.788999975       0.00000000
 -0.777999997       0.00000000
 -0.767000020       4.11552126E-24
 -0.755999982      -7.48159406E-23
 -0.745000005      -4.11353928E-15
 -0.734000027      -2.20607918E-14
 -0.722999990       1.45145113E-13
 -0.712000012      -1.33000260E-13
 -0.700999975      -1.16738834E-12
 -0.689999998       3.86292777E-12
 -0.679000020       2.78255012E-13
 -0.667999983      -2.93068382E-11
 -0.657000005       4.86963282E-11
 -0.646000028       3.78064420E-11
 -0.634999990      -1.62528685E-10
 -0.624000013       5.11689267E-11
 -0.612999976       2.52619620E-10
 -0.601999998      -2.96057651E-10
 -0.591000021      -5.63665746E-11
 -0.579999983       6.17451812E-10
 -0.569000006      -8.76940021E-10
 -0.558000028      -3.73352765E-10
 -0.546999991       2.64685607E-09
 -0.536000013      -1.37039391E-09
 -0.524999976      -4.54001414E-09
 -0.513999999       5.08199527E-09
 -0.503000021       4.73249218E-09
 -0.492000014      -9.02059050E-09
 -0.481000006      -2.61036681E-09
 -0.469999999       8.26248758E-09
 -0.458999991       3.63107522E-09
 -0.448000014       1.88094784E-09
 -0.437000006      -2.19027605E-08
 -0.425999999      -1.94078211E-08
 -0.414999992       7.26524689E-08
 -0.404000014       3.66197206E-08
 -0.393000007      -1.59897411E-07
 -0.381999999      -4.28493294E-08
 -0.370999992       2.44252050E-07
 -0.360000014       5.48722241E-08
 -0.349000007      -2.49879747E-07
 -0.338000000      -1.33541107E-07
 -0.326999992       1.36674714E-07
 -0.316000015       3.47382809E-07
 -0.305000007       3.39576101E-09
 -0.294000000      -6.53646111E-07
 -0.282999992       3.35380719E-08
 -0.272000015       8.13178247E-07
 -0.261000007      -4.24424599E-07
 -0.250000000      -5.60974456E-07
 -0.238999993       1.32356615E-06
 -0.228000000      -5.24980415E-08
 -0.216999993      -2.79303617E-06
 -0.206000000       3.90217195E-07
 -0.194999993       4.96043276E-06
 -0.184000000       4.08388132E-08
 -0.172999993      -8.30428417E-06
 -0.162000000      -9.78319918E-07
 -0.150999993       1.37239940E-05
 -0.140000001       1.93333744E-06
 -0.128999993      -2.16044136E-05
 -0.118000001      -7.92801927E-07
 -0.107000001       2.95064001E-05
  -9.60000008E-02  -5.26030499E-06
  -8.50000009E-02  -3.61961575E-05
  -7.40000010E-02   1.73978515E-05
  -6.30000010E-02   4.04758175E-05
  -5.20000011E-02  -2.71041899E-05
  -4.10000011E-02  -4.12812478E-05
  -2.99999993E-02   2.54639017E-05
  -1.89999994E-02   3.64559382E-05
  -8.00000038E-03  -6.62805223E-06
   3.00000003E-03  -3.39989492E-05
   1.40000004E-02  -1.28081283E-05
   2.50000004E-02   3.80720339E-05
   3.59999985E-02   2.08838701E-05
   4.69999984E-02  -6.10379502E-05
   5.79999983E-02  -4.23189340E-06
   6.89999983E-02   7.70195838E-05
   7.99999982E-02  -4.04807906E-05
   9.09999982E-02  -5.01302675E-05
  0.101999998       9.35890203E-05
  0.112999998       1.16482013E-07
  0.123999998      -1.34782880E-04
  0.135000005       4.73270593E-05
  0.145999998       1.36527873E-04
  0.157000005      -6.14316086E-05
  0.167999998      -8.35259052E-05
  0.179000005       6.06373214E-05
  0.189999998       1.99148440E-06
  0.201000005      -7.89626574E-05
  0.211999997       4.04551574E-05
  0.223000005       7.98822075E-05
  0.233999997      -2.48958968E-05
  0.245000005      -5.05277931E-05
  0.256000012      -2.77373711E-05
  0.266999990       2.52460923E-05
  0.277999997       1.30520202E-04
  0.289000005       1.40728944E-05
  0.300000012      -2.06117911E-04
  0.310999990      -8.38420601E-05
  0.321999997       1.07615677E-04
  0.333000004       8.78572682E-05
  0.344000012       1.41643308E-04
  0.354999989       3.59484693E-05
  0.365999997      -3.69042478E-04
  0.377000004      -9.76650263E-05
  0.388000011       5.10619720E-04
  0.398999989      -2.02854382E-04
  0.409999996      -3.54147254E-04
  0.421000004       3.99621815E-04
  0.432000011       2.35243424E-04
  0.442999989      -3.62076767E-04
  0.453999996      -3.47106950E-04
  0.465000004       1.51840577E-04
  0.476000011       1.74982852E-04
  0.486999989       5.71416458E-04
  0.497999996      -6.33207019E-05
  0.509000003      -9.60596488E-04
  0.519999981       2.64024158E-04
  0.531000018       5.87818155E-04
  0.541999996      -6.48690853E-04
  0.552999973      -2.14951491E-04
  0.564000010       1.36726245E-03
  0.574999988      -1.75612440E-04
  0.586000025      -1.55114126E-03
  0.597000003       5.96300350E-04
  0.607999980       5.00859809E-04
  0.619000018      -3.41451349E-04
  0.629999995       5.49340271E-04
  0.640999973       8.31430807E-05
  0.652000010      -1.51777430E-03
  0.662999988       6.79155171E-04
  0.674000025       9.61446844E-04
  0.685000002      -9.23059473E-04
  0.695999980       5.00477559E-04
  0.707000017       7.42829870E-04
  0.717999995      -1.23063638E-03
  0.728999972      -8.24986375E-04
  0.740000010       1.55548332E-03
  0.750999987       1.90334787E-04
  0.762000024      -9.45268257E-04
  0.773000002       2.00645110E-04
  0.783999979       1.89622035E-04
  0.795000017      -2.74472375E-04
  0.805999994       2.64148228E-04
  0.816999972       3.42476778E-05
  0.828000009      -3.90741683E-04
  0.838999987       4.42941790E-04
  0.850000024      -4.37879789E-04
  0.861000001      -5.14454616E-04
  0.871999979       1.03875494E-03
  0.883000016       3.63877713E-04
  0.893999994      -8.55354301E-04
  0.904999971       2.85564398E-04
  0.916000009       1.09250599E-03
  0.926999986      -7.35649839E-04
  0.938000023      -1.51058054E-03
  0.949000001       6.13927376E-04
  0.959999979       1.23163033E-03
  0.971000016      -6.65861764E-04
  0.981999993      -9.31422925E-04
  0.992999971       6.73380215E-04
   1.00399995       1.22510444E-03
   1.01499999      -1.06285769E-03
   1.02600002      -9.56450764E-04
   1.03699994       1.57799642E-03
   1.04799998       4.41793061E-04
   1.05900002      -2.41844286E-03
   1.07000005       8.67695708E-05
   1.08099997       3.03706806E-03
   1.09200001      -7.68619939E-04
   1.10300004      -2.59800255E-03
   1.11399996       1.62462879E-03
   1.12500000       1.65776361E-03
   1.13600004      -2.24883668E-03
   1.14699996      -8.72989767E-04
   1.15799999       2.04899069E-03
   1.16900003      -1.27954117E-04
   1.17999995      -1.21403183E-03
   1.19099998       7.59581337E-04
   1.20200002       8.36271676E-04
   1.21300006      -5.91703691E-04
   1.22399998      -6.17711572E-04
   1.23500001       2.99082021E-04
   1.24600005       3.59990605E-04
   1.25699997      -2.34694046E-04
   1.26800001      -3.91812180E-04
   1.27900004       1.71768479E-04
   1.28999996       1.37396739E-04
   1.30100000      -2.87188508E-04
   1.31200004       5.46798401E-04
   1.32299995       5.75353624E-04
   1.33399999      -1.12192577E-03
   1.34500003      -9.13208467E-04
   1.35599995       1.45954185E-03
   1.36699998       1.17372186E-03
   1.37800002      -1.20143453E-03
   1.38900006      -8.78545106E-04
