 -0.800000012       0.00000000
 -0.788999975       0.00000000
 -0.777999997       0.00000000
 -0.767000020      -3.24439947E-10
 -0.755999982       1.52881285E-09
 -0.745000005       1.02393294E-09
 -0.734000027      -1.11954401E-08
 -0.722999990       1.52080759E-09
 -0.712000012       4.06723295E-08
 -0.700999975      -1.55252451E-08
 -0.689999998      -8.79246045E-08
 -0.679000020       6.82235708E-08
 -0.667999983       1.36075968E-07
 -0.657000005      -2.06092878E-07
 -0.646000028      -1.90799071E-07
 -0.634999990       4.33206765E-07
 -0.624000013       3.09542628E-07
 -0.612999976      -5.65440700E-07
 -0.601999998      -3.98161546E-07
 -0.591000021       4.24761652E-07
 -0.579999983       1.96566788E-07
 -0.569000006      -1.97226967E-07
 -0.558000028       2.81048386E-07
 -0.546999991       3.06140663E-07
 -0.536000013      -3.25070403E-07
 -0.524999976      -3.40746084E-07
 -0.513999999      -5.14186311E-08
 -0.503000021       7.45001358E-08
 -0.492000014       2.09854193E-07
 -0.481000006      -3.68195629E-07
 -0.469999999      -6.04631339E-07
 -0.458999991       1.50739766E-06
 -0.448000014       2.71834756E-06
 -0.437000006      -5.19290268E-07
 -0.425999999      -3.72819568E-06
 -0.414999992      -2.94937445E-06
 -0.404000014      -1.90683215E-06
 -0.393000007      -2.36523510E-06
 -0.381999999      -2.18481273E-06
 -0.370999992      -3.61617822E-06
 -0.360000014      -8.12586586E-06
 -0.349000007      -1.09735811E-05
 -0.338000000      -1.15628900E-05
 -0.326999992      -1.54703866E-05
 -0.316000015      -2.39310957E-05
 -0.305000007      -3.48392350E-05
 -0.294000000      -4.78187467E-05
 -0.282999992      -6.10956267E-05
 -0.272000015      -7.52295455E-05
 -0.261000007      -9.76563097E-05
 -0.250000000      -1.31787267E-04
 -0.238999993      -1.72788496E-04
 -0.228000000      -2.20505448E-04
 -0.216999993      -2.80688517E-04
 -0.206000000      -3.55271244E-04
 -0.194999993      -4.46591002E-04
 -0.184000000      -5.62162488E-04
 -0.172999993      -7.05431507E-04
 -0.162000000      -8.74533143E-04
 -0.150999993      -1.07292971E-03
 -0.140000001      -1.30901486E-03
 -0.128999993      -1.58796250E-03
 -0.118000001      -1.91240269E-03
 -0.107000001      -2.28592195E-03
  -9.60000008E-02  -2.71195523E-03
  -8.50000009E-02  -3.19325458E-03
  -7.40000010E-02  -3.73223680E-03
  -6.30000010E-02  -4.33005858E-03
  -5.20000011E-02  -4.98711923E-03
  -4.10000011E-02  -5.70336776E-03
  -2.99999993E-02  -6.47556968E-03
  -1.89999994E-02  -7.29636755E-03
  -8.00000038E-03  -8.15804303E-03
   3.00000003E-03  -9.05479304E-03
   1.40000004E-02  -9.98008996E-03
   2.50000004E-02  -1.09251998E-02
   3.59999985E-02  -1.18825268E-02
   4.69999984E-02  -1.28475614E-02
   5.79999983E-02  -1.38168121E-02
   6.89999983E-02  -1.47900879E-02
   7.99999982E-02  -1.57779306E-02
   9.09999982E-02  -1.68030430E-02
  0.101999998      -1.78959686E-02
  0.112999998      -1.90967713E-02
  0.123999998      -2.04610601E-02
  0.135000005      -2.20608357E-02
  0.145999998      -2.39834487E-02
  0.157000005      -2.63341106E-02
  0.167999998      -2.92358864E-02
  0.179000005      -3.28232273E-02
  0.189999998      -3.72366831E-02
  0.201000005      -4.26225513E-02
  0.211999997      -4.91290912E-02
  0.223000005      -5.68951070E-02
  0.233999997      -6.60391524E-02
  0.245000005      -7.66528472E-02
  0.256000012      -8.87901857E-02
  0.266999990     -0.102453597
  0.277999997     -0.117584825
  0.289000005     -0.134056270
  0.300000012     -0.151657984
  0.310999990     -0.170091286
  0.321999997     -0.188970715
  0.333000004     -0.207823277
  0.344000012     -0.226086766
  0.354999989     -0.243118107
  0.365999997     -0.258207560
  0.377000004     -0.270597756
  0.388000011     -0.279510289
  0.398999989     -0.284170985
  0.409999996     -0.283832967
  0.421000004     -0.277811110
  0.432000011     -0.265519917
  0.442999989     -0.246502236
  0.453999996     -0.220459864
  0.465000004     -0.187287822
  0.476000011     -0.147093251
  0.486999989     -0.100202426
  0.497999996      -4.71731015E-02
  0.509000003       1.12015167E-02
  0.519999981       7.39100873E-02
  0.531000018      0.139746726
  0.541999996      0.207334757
  0.552999973      0.275165319
  0.564000010      0.341648936
  0.574999988      0.405166596
  0.586000025      0.464120030
  0.597000003      0.516987205
  0.607999980      0.562380493
  0.619000018      0.599096656
  0.629999995      0.626156628
  0.640999973      0.642841458
  0.652000010      0.648721516
  0.662999988      0.643671572
  0.674000025      0.627870798
  0.685000002      0.601795316
  0.695999980      0.566198707
  0.707000017      0.522078454
  0.717999995      0.470638216
  0.728999972      0.413245797
  0.740000010      0.351382107
  0.750999987      0.286584675
  0.762000024      0.220395863
  0.773000002      0.154314846
  0.783999979       8.97519663E-02
  0.795000017       2.79880613E-02
  0.805999994      -2.98584308E-02
  0.816999972      -8.28542113E-02
  0.828000009     -0.130265936
  0.838999987     -0.171569318
  0.850000024     -0.206447557
  0.861000001     -0.234779149
  0.871999979     -0.256623894
  0.883000016     -0.272205889
  0.893999994     -0.281886578
  0.904999971     -0.286135584
  0.916000009     -0.285507530
  0.926999986     -0.280616194
  0.938000023     -0.272104114
  0.949000001     -0.260618776
  0.959999979     -0.246796161
  0.971000016     -0.231243610
  0.981999993     -0.214522883
  0.992999971     -0.197139472
   1.00399995     -0.179538175
   1.01499999     -0.162101552
   1.02600002     -0.145146623
   1.03699994     -0.128923655
   1.04799998     -0.113622464
   1.05900002      -9.93806198E-02
   1.07000005      -8.62853751E-02
   1.08099997      -7.43778720E-02
   1.09200001      -6.36641681E-02
   1.10300004      -5.41221425E-02
   1.11399996      -4.57030684E-02
   1.12500000      -3.83391120E-02
   1.13600004      -3.19536254E-02
   1.14699996      -2.64633074E-02
   1.15799999      -2.17774473E-02
   1.16900003      -1.78039502E-02
   1.17999995      -1.44565273E-02
   1.19099998      -1.16549153E-02
   1.20200002      -9.32276994E-03
   1.21300006      -7.39008281E-03
   1.22399998      -5.79629745E-03
   1.23500001      -4.48872987E-03
   1.24600005      -3.42075084E-03
   1.25699997      -2.55361013E-03
   1.26800001      -1.85656722E-03
   1.27900004      -1.30355556E-03
   1.28999996      -8.71900935E-04
   1.30100000      -5.42731839E-04
   1.31200004      -2.99747539E-04
   1.32299995      -1.28848842E-04
   1.33399999      -1.84934306E-05
   1.34500003       4.22248413E-05
   1.35599995       6.41272709E-05
   1.36699998       5.61095621E-05
   1.37800002       2.65144135E-05
   1.38900006      -1.51467984E-05
