 -0.959999979       0.00000000
 -0.925000012      -4.66756155E-23
 -0.889999986      -9.18206666E-08
 -0.855000019      -1.47097239E-06
 -0.819999993      -3.34272886E-06
 -0.785000026      -2.11261386E-06
 -0.750000000      -3.56752912E-06
 -0.714999974      -1.96861947E-05
 -0.680000007      -4.49591389E-05
 -0.644999981      -6.76296186E-05
 -0.610000014      -1.03427134E-04
 -0.574999988      -1.79150724E-04
 -0.540000021      -2.97890743E-04
 -0.504999995      -4.48206236E-04
 -0.469999999      -6.13031269E-04
 -0.435000002      -7.60753173E-04
 -0.400000006      -8.68359057E-04
 -0.365000010      -9.37517907E-04
 -0.330000013      -9.74990195E-04
 -0.294999987      -1.05005980E-03
 -0.259999990      -1.44583161E-03
 -0.224999994      -2.75805499E-03
 -0.189999998      -5.93808107E-03
 -0.155000001      -1.23765394E-02
 -0.119999997      -2.39148792E-02
  -8.50000009E-02  -4.25958335E-02
  -5.00000007E-02  -7.01064244E-02
  -1.49999997E-02 -0.106858976
   1.99999996E-02 -0.150703266
   5.49999997E-02 -0.195632577
   9.00000036E-02 -0.231122747
  0.125000000     -0.242745712
  0.159999996     -0.214623317
  0.194999993     -0.133768722
  0.230000004       4.74554673E-03
  0.264999986      0.193615422
  0.300000012      0.411829352
  0.335000008      0.626998246
  0.370000005      0.801454544
  0.405000001      0.900355995
  0.439999998      0.899069071
  0.474999994      0.787771583
  0.509999990      0.572570801
  0.545000017      0.273624986
  0.579999983      -7.83017129E-02
  0.615000010     -0.445390940
  0.649999976     -0.786124587
  0.685000002      -1.05913031
  0.720000029      -1.22808325
  0.754999995      -1.26752603
  0.790000021      -1.16856110
  0.824999988     -0.942427337
  0.860000014     -0.620001078
  0.894999981     -0.246656477
  0.930000007      0.126372382
  0.964999974      0.451773912
   1.00000000      0.694210708
   1.03499997      0.834446728
   1.07000005      0.869196415
   1.10500002      0.808064103
   1.13999999      0.669608355
   1.17499995      0.478172362
   1.21000004      0.261823505
   1.24500000       5.02781421E-02
   1.27999997     -0.128580630
   1.31500006     -0.253664851
   1.35000002     -0.315456539
   1.38499999     -0.318091750
   1.41999996     -0.276983768
   1.45500004     -0.212460354
   1.49000001     -0.142379910
   1.52499998      -7.74788037E-02
   1.55999994      -2.14983188E-02
   1.59500003       2.49248911E-02
   1.63000000       5.99841624E-02
