 -0.800000012       0.00000000
 -0.788999975       0.00000000
 -0.777999997       9.66387741E-25
 -0.767000020       1.63659722E-16
 -0.755999982       1.38795581E-15
 -0.745000005      -1.05867184E-14
 -0.734000027      -1.54323372E-14
 -0.722999990      -4.52708787E-14
 -0.712000012       8.48223943E-14
 -0.700999975       1.06961051E-13
 -0.689999998       3.91401558E-14
 -0.679000020      -1.25541491E-13
 -0.667999983       3.56345026E-13
 -0.657000005       7.51129302E-13
 -0.646000028      -3.16258006E-13
 -0.634999990      -1.53290119E-12
 -0.624000013      -5.61576610E-13
 -0.612999976       2.25064260E-12
 -0.601999998      -2.91841773E-13
 -0.591000021      -4.07695926E-12
 -0.579999983       3.02015140E-12
 -0.569000006       8.04999036E-12
 -0.558000028      -1.70929915E-12
 -0.546999991      -2.91067409E-12
 -0.536000013       1.22196274E-12
 -0.524999976      -1.09677710E-11
 -0.513999999      -5.95224391E-12
 -0.503000021       1.96916945E-11
 -0.492000014       4.18124042E-12
 -0.481000006       1.60874456E-11
 -0.469999999       1.47728357E-11
 -0.458999991      -1.40726319E-10
 -0.448000014      -5.52876078E-11
 -0.437000006       2.77304429E-10
 -0.425999999       1.03432769E-10
 -0.414999992      -1.84496265E-10
 -0.404000014      -9.00335362E-11
 -0.393000007      -2.36843434E-10
 -0.381999999      -1.41270537E-10
 -0.370999992       5.80183679E-10
 -0.360000014       1.91838406E-10
 -0.349000007      -6.88347601E-10
 -0.338000000       4.60522731E-10
 -0.326999992       1.23045241E-09
 -0.316000015      -8.37146241E-10
 -0.305000007      -1.68806169E-09
 -0.294000000       2.89539948E-10
 -0.282999992       2.70651085E-10
 -0.272000015      -1.63349612E-09
 -0.261000007       3.11892401E-09
 -0.250000000       6.49044729E-09
 -0.238999993      -3.86696319E-09
 -0.228000000      -1.74781967E-08
 -0.216999993      -6.29142682E-10
 -0.206000000       2.84209634E-08
 -0.194999993       5.10935116E-09
 -0.184000000      -2.50108503E-08
 -0.172999993       3.86600618E-09
 -0.162000000       1.92551077E-08
 -0.150999993      -4.28240448E-08
 -0.140000001      -4.56228797E-08
 -0.128999993       9.30850561E-08
 -0.118000001       1.05361316E-07
 -0.107000001      -6.59222295E-08
  -9.60000008E-02  -1.73617323E-07
  -8.50000009E-02   2.28913652E-08
  -7.40000010E-02   2.27466813E-07
  -6.30000010E-02  -1.18946524E-07
  -5.20000011E-02  -3.14010833E-07
  -4.10000011E-02   3.11182305E-07
  -2.99999993E-02   4.71771358E-07
  -1.89999994E-02  -4.30080775E-07
  -8.00000038E-03  -7.09836399E-07
   3.00000003E-03   1.85738713E-07
   1.40000004E-02   5.48769037E-07
   2.50000004E-02   3.74004685E-08
   3.59999985E-02   4.44957671E-08
   4.69999984E-02   4.39663950E-07
   5.79999983E-02   4.89739698E-08
   6.89999983E-02  -5.60102876E-07
   7.99999982E-02  -3.10020738E-07
   9.09999982E-02   1.62385504E-07
  0.101999998      -1.06170994E-07
  0.112999998      -4.04893598E-07
  0.123999998       2.53670748E-07
  0.135000005       5.44144086E-07
  0.145999998      -2.58085663E-07
  0.157000005      -2.27737843E-07
  0.167999998       9.10768676E-07
  0.179000005       7.34778496E-07
  0.189999998      -1.35551727E-06
  0.201000005      -1.74766819E-06
  0.211999997       7.86238900E-07
  0.223000005       1.70183591E-06
  0.233999997      -4.80904077E-07
  0.245000005      -1.13748661E-06
  0.256000012       8.39667393E-07
  0.266999990       7.84607664E-07
  0.277999997      -3.91103526E-07
  0.289000005      -3.78506790E-08
  0.300000012      -7.63572928E-07
  0.310999990      -1.42006371E-08
  0.321999997       2.31292961E-06
  0.333000004       1.29076369E-07
  0.344000012      -2.33670312E-06
  0.354999989       6.04299032E-07
  0.365999997       1.97992040E-06
  0.377000004      -1.79245433E-06
  0.388000011      -2.76711671E-06
  0.398999989       4.79636867E-07
  0.409999996       1.07060077E-06
  0.421000004      -5.78531342E-07
  0.432000011       9.74012195E-08
  0.442999989       1.61767775E-06
  0.453999996       9.35890682E-07
  0.465000004      -4.44967128E-07
  0.476000011      -5.62690957E-07
  0.486999989      -5.00611293E-07
  0.497999996      -1.15086294E-07
  0.509000003       1.65466929E-06
  0.519999981       1.27642500E-06
  0.531000018      -2.90645721E-06
  0.541999996      -2.25498729E-06
  0.552999973       2.49109576E-06
  0.564000010       6.10085976E-07
  0.574999988      -3.78853747E-06
  0.586000025       9.83637278E-07
  0.597000003       5.31148362E-06
  0.607999980       1.98604042E-07
  0.619000018      -2.33272362E-06
  0.629999995       4.93808230E-08
  0.640999973       4.04494045E-07
  0.652000010      -9.35905689E-07
  0.662999988      -1.31005879E-06
  0.674000025      -1.42419719E-06
  0.685000002       2.65259541E-06
  0.695999980       6.95888275E-06
  0.707000017      -6.84235204E-07
  0.717999995      -7.23267067E-06
  0.728999972      -4.16843221E-07
  0.740000010       6.68773566E-07
  0.750999987      -6.50477841E-06
  0.762000024      -1.55265496E-07
  0.773000002       1.02921204E-05
  0.783999979       2.02784327E-06
  0.795000017      -9.10159361E-06
  0.805999994      -2.33807964E-06
  0.816999972       6.28022099E-06
  0.828000009       1.90302330E-06
  0.838999987      -2.83189047E-06
  0.850000024      -4.06023901E-07
  0.861000001       1.12007694E-06
  0.871999979      -1.08577558E-06
  0.883000016      -1.91939307E-06
  0.893999994       8.44647843E-07
  0.904999971       4.34923095E-06
  0.916000009       3.14535350E-06
  0.926999986      -3.10487781E-06
  0.938000023      -6.85488521E-06
  0.949000001      -2.78680022E-06
  0.959999979       4.78830452E-06
  0.971000016       7.22209597E-06
  0.981999993       3.04246510E-06
  0.992999971      -8.44753743E-07
   1.00399995      -1.21507446E-06
   1.01499999      -2.52270888E-06
   1.02600002      -4.32827255E-06
   1.03699994      -2.09626342E-06
   1.04799998       3.87630450E-07
   1.05900002      -5.62831246E-07
   1.07000005      -2.38440379E-07
   1.08099997       1.93706933E-06
   1.09200001       2.58063028E-06
   1.10300004       3.48985964E-06
   1.11399996       3.14316367E-06
   1.12500000      -2.02065826E-06
   1.13600004      -5.02345620E-06
   1.14699996      -2.08258075E-06
   1.15799999      -1.17128366E-06
   1.16900003      -2.21537061E-06
   1.17999995       7.31974467E-07
   1.19099998       2.52597579E-06
   1.20200002      -5.30190619E-07
   1.21300006      -1.59925037E-06
   1.22399998       1.17208526E-06
   1.23500001       3.04875675E-06
   1.24600005       2.08397159E-06
   1.25699997      -8.91869377E-07
   1.26800001      -1.01599073E-06
   1.27900004       3.80707365E-06
   1.28999996       3.55950192E-06
   1.30100000      -4.68233429E-06
   1.31200004      -6.19791763E-06
   1.32299995       1.03871741E-06
   1.33399999       1.37973962E-06
   1.34500003      -3.94505832E-06
   1.35599995      -6.85036412E-07
   1.36699998       6.36403274E-06
   1.37800002       3.38510426E-06
   1.38900006      -4.97370456E-06
