 -0.959999979       0.00000000
 -0.925000012      -1.24653443E-19
 -0.889999986       0.00000000
 -0.855000019       6.59403851E-11
 -0.819999993      -2.80951734E-10
 -0.785000026       3.07358972E-10
 -0.750000000      -1.59636404E-09
 -0.714999974       1.47041157E-09
 -0.680000007       3.00580205E-09
 -0.644999981      -1.17159544E-08
 -0.610000014       1.26238453E-09
 -0.574999988      -4.59247218E-08
 -0.540000021       2.00646852E-07
 -0.504999995      -1.47044631E-07
 -0.469999999      -1.56493371E-07
 -0.435000002       4.05354029E-07
 -0.400000006      -1.19053659E-07
 -0.365000010      -2.49568416E-07
 -0.330000013      -2.51299696E-07
 -0.294999987       2.53470745E-07
 -0.259999990       1.00952150E-06
 -0.224999994       2.61614250E-08
 -0.189999998      -2.56612930E-06
 -0.155000001       2.33875858E-06
 -0.119999997       2.47617731E-06
  -8.50000009E-02  -1.02318390E-05
  -5.00000007E-02   3.82969347E-06
  -1.49999997E-02   1.10123883E-05
   1.99999996E-02  -2.00808481E-05
   5.49999997E-02   1.20215382E-05
   9.00000036E-02   2.29048455E-05
  0.125000000      -1.39922358E-05
  0.159999996      -2.17878151E-05
  0.194999993       7.25906011E-06
  0.230000004       1.21440025E-05
  0.264999986      -1.29132977E-05
  0.300000012      -6.46500439E-06
  0.335000008       3.83697261E-05
  0.370000005      -1.06423440E-05
  0.405000001      -4.39405558E-05
  0.439999998      -1.43729558E-05
  0.474999994       5.43321657E-05
  0.509999990       3.16395672E-05
  0.545000017      -4.41098018E-05
  0.579999983       8.19945035E-06
  0.615000010       1.74203833E-05
  0.649999976      -4.50809021E-05
  0.685000002      -4.65867342E-05
  0.720000029       5.72895988E-05
  0.754999995       6.27652480E-05
  0.790000021      -2.03632462E-05
  0.824999988      -6.96268107E-05
  0.860000014       1.94554614E-05
  0.894999981       4.28937783E-05
  0.930000007       2.67564104E-07
  0.964999974      -4.05595711E-05
   1.00000000      -1.21404773E-05
   1.03499997       2.36316755E-05
   1.07000005       2.22454091E-05
   1.10500002       1.43522595E-06
   1.13999999      -4.61925038E-06
   1.17499995      -2.11603560E-06
   1.21000004       2.62900494E-06
   1.24500000      -3.76906173E-05
   1.27999997      -2.58019936E-05
   1.31500006       5.39417815E-05
   1.35000002       2.85828119E-05
   1.38499999      -6.29618517E-05
   1.41999996      -6.41049155E-06
   1.45500004       8.49931675E-05
   1.49000001      -7.64462493E-06
   1.52499998      -8.39231434E-05
   1.55999994       1.53671317E-05
   1.59500003       4.11808251E-05
   1.63000000      -2.19309786E-05
