 -0.800000012       0.00000000
 -0.788999975       0.00000000
 -0.777999997       0.00000000
 -0.767000020      -5.43103756E-13
 -0.755999982      -1.35070969E-12
 -0.745000005      -2.97479992E-11
 -0.734000027       1.26382710E-10
 -0.722999990      -2.62792593E-10
 -0.712000012       3.91123411E-10
 -0.700999975       6.36762310E-10
 -0.689999998      -5.51777690E-09
 -0.679000020       7.11152559E-09
 -0.667999983       1.80886168E-08
 -0.657000005      -5.07907387E-08
 -0.646000028      -1.84572677E-08
 -0.634999990       1.73614069E-07
 -0.624000013      -6.40824211E-08
 -0.612999976      -3.87457561E-07
 -0.601999998       3.39363652E-07
 -0.591000021       5.81793984E-07
 -0.579999983      -8.53017582E-07
 -0.569000006      -4.43506849E-07
 -0.558000028       1.42995032E-06
 -0.546999991      -4.87686918E-07
 -0.536000013      -1.65257643E-06
 -0.524999976       2.42359806E-06
 -0.513999999       1.09077644E-06
 -0.503000021      -4.50607240E-06
 -0.492000014       5.86395061E-07
 -0.481000006       4.26307224E-06
 -0.469999999      -4.12344980E-06
 -0.458999991       8.17354362E-07
 -0.448000014       1.04908431E-05
 -0.437000006      -9.47317585E-06
 -0.425999999      -1.71780011E-05
 -0.414999992       1.66677346E-05
 -0.404000014       1.50115675E-05
 -0.393000007      -2.18714013E-05
 -0.381999999       1.30474223E-06
 -0.370999992       2.80028817E-05
 -0.360000014      -2.12146388E-05
 -0.349000007      -2.14010306E-05
 -0.338000000       4.67876562E-05
 -0.326999992       1.38611256E-06
 -0.316000015      -8.70927979E-05
 -0.305000007      -2.77022828E-05
 -0.294000000       1.34505199E-05
 -0.282999992      -9.48076267E-05
 -0.272000015      -1.19895652E-04
 -0.261000007      -5.76112034E-05
 -0.250000000      -1.58068171E-04
 -0.238999993      -2.84306938E-04
 -0.228000000      -2.54515762E-04
 -0.216999993      -3.35416407E-04
 -0.206000000      -5.99210849E-04
 -0.194999993      -7.53663888E-04
 -0.184000000      -9.01476713E-04
 -0.172999993      -1.30799273E-03
 -0.162000000      -1.76735909E-03
 -0.150999993      -2.18349881E-03
 -0.140000001      -2.87557859E-03
 -0.128999993      -3.83261987E-03
 -0.118000001      -4.83253645E-03
 -0.107000001      -6.10876828E-03
  -9.60000008E-02  -7.86337070E-03
  -8.50000009E-02  -9.90126748E-03
  -7.40000010E-02  -1.23001644E-02
  -6.30000010E-02  -1.53578650E-02
  -5.20000011E-02  -1.89869050E-02
  -4.10000011E-02  -2.31553502E-02
  -2.99999993E-02  -2.82036494E-02
  -1.89999994E-02  -3.41786034E-02
  -8.00000038E-03  -4.09138985E-02
   3.00000003E-03  -4.86540794E-02
   1.40000004E-02  -5.75773865E-02
   2.50000004E-02  -6.74440861E-02
   3.59999985E-02  -7.83076659E-02
   4.69999984E-02  -9.04236659E-02
   5.79999983E-02 -0.103510536
   6.89999983E-02 -0.117259502
   7.99999982E-02 -0.131821841
   9.09999982E-02 -0.146983370
  0.101999998     -0.162089825
  0.112999998     -0.176942065
  0.123999998     -0.191379815
  0.135000005     -0.204559177
  0.145999998     -0.215780318
  0.157000005     -0.224848971
  0.167999998     -0.231062189
  0.179000005     -0.233353078
  0.189999998     -0.231291980
  0.201000005     -0.224523693
  0.211999997     -0.212104216
  0.223000005     -0.193447933
  0.233999997     -0.168589920
  0.245000005     -0.137168258
  0.256000012      -9.87191796E-02
  0.266999990      -5.36186472E-02
  0.277999997      -2.39913980E-03
  0.289000005       5.48075102E-02
  0.300000012      0.117321767
  0.310999990      0.183862805
  0.321999997      0.253541648
  0.333000004      0.325438768
  0.344000012      0.397877514
  0.354999989      0.469295472
  0.365999997      0.538634241
  0.377000004      0.604403317
  0.388000011      0.664880931
  0.398999989      0.719024122
  0.409999996      0.765903592
  0.421000004      0.804206312
  0.432000011      0.833120942
  0.442999989      0.852401733
  0.453999996      0.861482620
  0.465000004      0.859870195
  0.476000011      0.847794175
  0.486999989      0.825438976
  0.497999996      0.792605460
  0.509000003      0.749559879
  0.519999981      0.696891189
  0.531000018      0.634659767
  0.541999996      0.562847972
  0.552999973      0.481970131
  0.564000010      0.392382503
  0.574999988      0.293981493
  0.586000025      0.187032863
  0.597000003       7.22336918E-02
  0.607999980      -4.99970689E-02
  0.619000018     -0.179194346
  0.629999995     -0.314171642
  0.640999973     -0.453447193
  0.652000010     -0.595590889
  0.662999988     -0.738619149
  0.674000025     -0.879891872
  0.685000002      -1.01669860
  0.695999980      -1.14614511
  0.707000017      -1.26483870
  0.717999995      -1.36933756
  0.728999972      -1.45641673
  0.740000010      -1.52282512
  0.750999987      -1.56557286
  0.762000024      -1.58236098
  0.773000002      -1.57135415
  0.783999979      -1.53123307
  0.795000017      -1.46178186
  0.805999994      -1.36378527
  0.816999972      -1.23858321
  0.828000009      -1.08843648
  0.838999987     -0.916803896
  0.850000024     -0.727737606
  0.861000001     -0.525605202
  0.871999979     -0.315498382
  0.883000016     -0.102995262
  0.893999994      0.106604569
  0.904999971      0.308254510
  0.916000009      0.496859580
  0.926999986      0.667830467
  0.938000023      0.817618251
  0.949000001      0.943341076
  0.959999979       1.04265380
  0.971000016       1.11434543
  0.981999993       1.15834773
  0.992999971       1.17517316
   1.00399995       1.16604376
   1.01499999       1.13320947
   1.02600002       1.07946718
   1.03699994       1.00776851
   1.04799998      0.921498418
   1.05900002      0.824376881
   1.07000005      0.719927192
   1.08099997      0.611480176
   1.09200001      0.502346933
   1.10300004      0.395477653
   1.11399996      0.293244600
   1.12500000      0.197704375
   1.13600004      0.110592306
   1.14699996       3.30061875E-02
   1.15799999      -3.44666578E-02
   1.16900003      -9.14260522E-02
   1.17999995     -0.137833863
   1.19099998     -0.174185455
   1.20200002     -0.201139212
   1.21300006     -0.219353274
   1.22399998     -0.229802817
   1.23500001     -0.233657226
   1.24600005     -0.231870323
   1.25699997     -0.225399852
   1.26800001     -0.215406269
   1.27900004     -0.202815846
   1.28999996     -0.188293532
   1.30100000     -0.172676578
   1.31200004     -0.156714931
   1.32299995     -0.140728831
   1.33399999     -0.125076935
   1.34500003     -0.110281713
   1.35599995      -9.64832529E-02
   1.36699998      -8.36001858E-02
   1.37800002      -7.18505979E-02
   1.38900006      -6.13969378E-02
