 -0.800000012       0.00000000
 -0.788999975       0.00000000
 -0.777999997       0.00000000
 -0.767000020      -1.55922226E-06
 -0.755999982       5.96232394E-06
 -0.745000005       3.74945885E-05
 -0.734000027      -1.55634378E-04
 -0.722999990      -7.34046307E-06
 -0.712000012       6.48222165E-04
 -0.700999975      -4.64937970E-04
 -0.689999998      -1.37957488E-03
 -0.679000020       1.80946453E-03
 -0.667999983       1.65566662E-03
 -0.657000005      -3.87346675E-03
 -0.646000028      -5.81875502E-04
 -0.634999990       5.19255036E-03
 -0.624000013      -1.92206027E-03
 -0.612999976      -2.81746429E-03
 -0.601999998       4.71668597E-03
 -0.591000021      -6.12748461E-03
 -0.579999983      -6.43071020E-03
 -0.569000006       2.06281450E-02
 -0.558000028       5.89108886E-03
 -0.546999991      -3.35041881E-02
 -0.536000013      -1.15762604E-03
 -0.524999976       3.60165760E-02
 -0.513999999      -8.18867609E-03
 -0.503000021      -2.46144887E-02
 -0.492000014       1.61998887E-02
 -0.481000006      -4.09604661E-04
 -0.469999999      -1.73947215E-02
 -0.458999991       3.31546888E-02
 -0.448000014       1.81189347E-02
 -0.437000006      -4.53525782E-02
 -0.425999999      -5.19539928E-03
 -0.414999992       3.77701297E-02
 -0.404000014      -4.43306752E-03
 -0.393000007       9.84724332E-03
 -0.381999999       4.32281233E-02
 -0.370999992      -2.03849524E-02
 -0.360000014      -2.05926616E-02
 -0.349000007       7.37290829E-02
 -0.338000000       5.30656315E-02
 -0.326999992       2.67729338E-04
 -0.316000015       7.38876686E-02
 -0.305000007      0.100811251
 -0.294000000       5.04561253E-02
 -0.282999992      0.127385333
 -0.272000015      0.229516417
 -0.261000007      0.196135044
 -0.250000000      0.208859727
 -0.238999993      0.341275841
 -0.228000000      0.419919342
 -0.216999993      0.469957054
 -0.206000000      0.607344031
 -0.194999993      0.751039267
 -0.184000000      0.858628035
 -0.172999993       1.02256739
 -0.162000000       1.23876417
 -0.150999993       1.43894506
 -0.140000001       1.65214729
 -0.128999993       1.92157435
 -0.118000001       2.19559765
 -0.107000001       2.43323374
  -9.60000008E-02   2.69840908
  -8.50000009E-02   3.00315309
  -7.40000010E-02   3.24459863
  -6.30000010E-02   3.43891716
  -5.20000011E-02   3.66860557
  -4.10000011E-02   3.80972099
  -2.99999993E-02   3.78245425
  -1.89999994E-02   3.74419570
  -8.00000038E-03   3.65815783
   3.00000003E-03   3.32794189
   1.40000004E-02   2.84938502
   2.50000004E-02   2.29613304
   3.59999985E-02   1.48320770
   4.69999984E-02  0.453563273
   5.79999983E-02 -0.656901658
   6.89999983E-02  -2.01598692
   7.99999982E-02  -3.63349891
   9.09999982E-02  -5.30411434
  0.101999998      -7.13454866
  0.112999998      -9.17564201
  0.123999998      -11.1651993
  0.135000005      -13.1499233
  0.145999998      -15.2596970
  0.157000005      -17.1770382
  0.167999998      -18.7954998
  0.179000005      -20.3386631
  0.189999998      -21.5990372
  0.201000005      -22.3260994
  0.211999997      -22.7051888
  0.223000005      -22.6651020
  0.233999997      -21.9294395
  0.245000005      -20.6430969
  0.256000012      -18.8688564
  0.266999990      -16.3772964
  0.277999997      -13.2929459
  0.289000005      -9.77324104
  0.300000012      -5.60970688
  0.310999990     -0.902958810
  0.321999997       4.01153183
  0.333000004       9.22700596
  0.344000012       14.7576561
  0.354999989       20.2068462
  0.365999997       25.4826813
  0.377000004       30.6980381
  0.388000011       35.5430603
  0.398999989       39.7174950
  0.409999996       43.2862053
  0.421000004       46.1606102
  0.432000011       48.0343552
  0.442999989       48.8519211
  0.453999996       48.6891403
  0.465000004       47.4125862
  0.476000011       44.9035416
  0.486999989       41.3005333
  0.497999996       36.6998749
  0.509000003       31.0269852
  0.519999981       24.4376812
  0.531000018       17.2527752
  0.541999996       9.51399422
  0.552999973       1.32037544
  0.564000010      -6.86213160
  0.574999988      -14.8386745
  0.586000025      -22.6618156
  0.597000003      -29.8919754
  0.607999980      -36.1228905
  0.619000018      -41.5341225
  0.629999995      -45.9701958
  0.640999973      -48.9291916
  0.652000010      -50.5860291
  0.662999988      -51.1727486
  0.674000025      -50.2995415
  0.685000002      -48.0209198
  0.695999980      -44.8599968
  0.707000017      -40.7128754
  0.717999995      -35.5009384
  0.728999972      -29.8051243
  0.740000010      -23.8193989
  0.750999987      -17.3833275
  0.762000024      -10.9563408
  0.773000002      -4.93373728
  0.783999979      0.875389338
  0.795000017       6.29817724
  0.805999994       10.8935785
  0.816999972       14.7727947
  0.828000009       18.0567436
  0.838999987       20.4500713
  0.850000024       21.9505367
  0.861000001       22.8344116
  0.871999979       23.0455055
  0.883000016       22.5018616
  0.893999994       21.4537392
  0.904999971       20.0677204
  0.916000009       18.2868786
  0.926999986       16.2128754
  0.938000023       14.0773516
  0.949000001       11.9092779
  0.959999979       9.66975212
  0.971000016       7.52985382
  0.981999993       5.62231207
  0.992999971       3.83776855
   1.00399995       2.18416119
   1.01499999      0.841436028
   1.02600002     -0.254805684
   1.03699994      -1.24415505
   1.04799998      -1.98599267
   1.05900002      -2.44408083
   1.07000005      -2.82848716
   1.08099997      -3.10068917
   1.09200001      -3.12837219
   1.10300004      -3.09254909
   1.11399996      -3.07269597
   1.12500000      -2.89258718
   1.13600004      -2.63584971
   1.14699996      -2.47771049
   1.15799999      -2.26552701
   1.16900003      -1.94600976
   1.17999995      -1.73240614
   1.19099998      -1.58154881
   1.20200002      -1.32432520
   1.21300006      -1.10086560
   1.22399998     -0.999818683
   1.23500001     -0.844445705
   1.24600005     -0.648606539
   1.25699997     -0.570313275
   1.26800001     -0.510536790
   1.27900004     -0.375685930
   1.28999996     -0.305044502
   1.30100000     -0.295476526
   1.31200004     -0.209189594
   1.32299995     -0.135388836
   1.33399999     -0.157000288
   1.34500003     -0.126660600
   1.35599995      -4.69906554E-02
   1.36699998      -6.89270198E-02
   1.37800002      -9.42022502E-02
   1.38900006      -1.91527177E-02
