 -0.959999979       3.82220969E-02
 -0.925000012       3.72468960E-03
 -0.889999986       2.94005182E-02
 -0.855000019      0.134865195
 -0.819999993      0.244087189
 -0.785000026      0.423526317
 -0.750000000      0.797918916
 -0.714999974       1.37894142
 -0.680000007       2.17671895
 -0.644999981       3.22212100
 -0.610000014       4.36052799
 -0.574999988       5.20356226
 -0.540000021       5.18329382
 -0.504999995       3.48126936
 -0.469999999     -0.856840968
 -0.435000002      -8.46249008
 -0.400000006      -19.1865158
 -0.365000010      -31.7499046
 -0.330000013      -43.4472389
 -0.294999987      -50.3242683
 -0.259999990      -48.1676025
 -0.224999994      -33.9278336
 -0.189999998      -7.05670595
 -0.155000001       29.5528030
 -0.119999997       69.5718765
  -8.50000009E-02   104.646019
  -5.00000007E-02   126.716179
  -1.49999997E-02   130.173431
   1.99999996E-02   113.130951
   5.49999997E-02   77.5610046
   9.00000036E-02   28.3058186
  0.125000000      -28.3245888
  0.159999996      -85.3879776
  0.194999993      -135.412476
  0.230000004      -170.447052
  0.264999986      -182.802582
  0.300000012      -166.867569
  0.335000008      -121.779335
  0.370000005      -53.6948662
  0.405000001       24.1278305
  0.439999998       94.2413330
  0.474999994       140.182755
  0.509999990       152.077499
  0.545000017       130.254684
  0.579999983       84.9701157
  0.615000010       32.2636986
  0.649999976      -12.1022243
  0.685000002      -38.0337257
  0.720000029      -43.7358780
  0.754999995      -34.7286186
  0.790000021      -20.1320038
  0.824999988      -8.29989147
  0.860000014      -3.70128202
  0.894999981      -5.98262691
  0.930000007      -11.2089815
  0.964999974      -14.4550934
   1.00000000      -12.3994789
   1.03499997      -4.79583931
   1.07000005       5.59216213
   1.10500002       14.4132004
   1.13999999       17.8751755
   1.17499995       14.5927696
   1.21000004       6.21046400
   1.24500000      -3.42248273
   1.27999997      -10.0632467
   1.31500006      -11.0679150
   1.35000002      -6.62043667
   1.38499999      0.473431319
   1.41999996       6.28872252
   1.45500004       7.75037050
   1.49000001       4.14134026
   1.52499998      -2.55855346
   1.55999994      -8.75190544
   1.59500003      -11.1654863
   1.63000000      -8.54075336
