 -0.800000012       0.00000000
 -0.788999975       0.00000000
 -0.777999997       0.00000000
 -0.767000020       0.00000000
 -0.755999982       1.84717801E-13
 -0.745000005       1.32822139E-13
 -0.734000027       7.42478507E-13
 -0.722999990      -1.02460499E-12
 -0.712000012       5.97733194E-14
 -0.700999975       2.28180891E-13
 -0.689999998      -3.93368118E-13
 -0.679000020      -1.66287936E-12
 -0.667999983       2.03797439E-12
 -0.657000005      -2.12520236E-12
 -0.646000028       6.49698047E-12
 -0.634999990       3.54717644E-11
 -0.624000013      -2.55442594E-11
 -0.612999976      -3.50495986E-11
 -0.601999998       2.56785565E-11
 -0.591000021      -3.98941991E-11
 -0.579999983      -5.44424818E-11
 -0.569000006       6.47386181E-12
 -0.558000028       1.01489060E-10
 -0.546999991      -1.64708837E-11
 -0.536000013      -1.28666924E-10
 -0.524999976       2.23725372E-10
 -0.513999999      -7.52762366E-11
 -0.503000021      -5.32105804E-10
 -0.492000014       2.27674005E-10
 -0.481000006      -1.50059715E-10
 -0.469999999      -9.00668706E-11
 -0.458999991       8.66816341E-10
 -0.448000014      -4.69614625E-10
 -0.437000006      -5.72286885E-10
 -0.425999999       1.66226277E-09
 -0.414999992       1.06566456E-09
 -0.404000014      -1.07936093E-09
 -0.393000007       8.75012840E-10
 -0.381999999      -1.62221925E-09
 -0.370999992      -8.27042379E-10
 -0.360000014       2.54235077E-09
 -0.349000007       1.31729183E-09
 -0.338000000      -5.81252557E-09
 -0.326999992      -1.17059262E-09
 -0.316000015       2.82780044E-09
 -0.305000007       1.18298182E-09
 -0.294000000       1.07157208E-08
 -0.282999992       4.43932269E-09
 -0.272000015      -2.09125677E-08
 -0.261000007      -1.53970472E-08
 -0.250000000       1.47038515E-08
 -0.238999993      -6.95407154E-09
 -0.228000000      -2.04445545E-08
 -0.216999993       6.27059904E-10
 -0.206000000       1.04508366E-08
 -0.194999993      -7.14798776E-11
 -0.184000000       1.32585525E-08
 -0.172999993       2.01367474E-08
 -0.162000000       8.25310265E-10
 -0.150999993      -3.39434836E-09
 -0.140000001       1.94057126E-08
 -0.128999993       1.63213254E-09
 -0.118000001      -2.56547121E-08
 -0.107000001      -5.18368850E-08
  -9.60000008E-02  -7.33339220E-08
  -8.50000009E-02   5.95764282E-09
  -7.40000010E-02   1.07731893E-07
  -6.30000010E-02   6.12158715E-08
  -5.20000011E-02  -3.88121428E-08
  -4.10000011E-02  -2.24974883E-08
  -2.99999993E-02  -2.84675616E-10
  -1.89999994E-02  -6.49448282E-08
  -8.00000038E-03  -3.83174061E-08
   3.00000003E-03   6.79334420E-08
   1.40000004E-02   6.72346516E-08
   2.50000004E-02   2.64794622E-08
   3.59999985E-02   3.11378550E-08
   4.69999984E-02  -6.61646595E-08
   5.79999983E-02  -6.64510225E-08
   6.89999983E-02   1.53826178E-08
   7.99999982E-02   7.19212281E-08
   9.09999982E-02   9.53411998E-08
  0.101999998       6.68938895E-08
  0.112999998      -1.06368503E-07
  0.123999998      -1.55971009E-07
  0.135000005       7.25430667E-08
  0.145999998       8.32855349E-08
  0.157000005      -1.66131841E-07
  0.167999998      -2.06563477E-08
  0.179000005       1.62782626E-07
  0.189999998       1.31306752E-08
  0.201000005      -1.45931153E-07
  0.211999997       6.98302287E-08
  0.223000005       8.12191416E-08
  0.233999997      -1.90155873E-07
  0.245000005      -1.29520430E-07
  0.256000012       2.66661971E-07
  0.266999990       1.99996535E-07
  0.277999997      -2.04809098E-07
  0.289000005      -1.96382970E-07
  0.300000012       1.23880204E-08
  0.310999990      -2.50716088E-08
  0.321999997      -9.70524496E-08
  0.333000004       4.15732231E-08
  0.344000012       1.23133770E-08
  0.354999989      -1.24565375E-07
  0.365999997      -5.84782143E-08
  0.377000004       1.25069278E-07
  0.388000011       1.14848667E-07
  0.398999989       6.00865775E-08
  0.409999996       1.20173496E-07
  0.421000004       5.65690677E-08
  0.432000011      -1.47857591E-07
  0.442999989      -1.71321190E-07
  0.453999996       4.57785561E-08
  0.465000004       1.82198534E-07
  0.476000011       1.82026234E-08
  0.486999989      -1.43959539E-07
  0.497999996      -1.13999787E-08
  0.509000003       1.55477213E-08
  0.519999981      -2.05066513E-07
  0.531000018      -1.22952301E-07
  0.541999996       2.52620822E-07
  0.552999973       1.75447596E-07
  0.564000010      -1.27503128E-07
  0.574999988      -1.19621646E-07
  0.586000025      -1.01696791E-07
  0.597000003      -2.10319712E-07
  0.607999980      -2.89124316E-08
  0.619000018       2.55181789E-07
  0.629999995       1.64815404E-07
  0.640999973      -1.16469820E-07
  0.652000010      -1.08763743E-07
  0.662999988       1.25808043E-07
  0.674000025       1.38374688E-07
  0.685000002      -1.59113029E-07
  0.695999980      -2.09927464E-07
  0.707000017       1.17317555E-07
  0.717999995       1.31774442E-07
  0.728999972      -1.72226692E-07
  0.740000010      -6.54216166E-08
  0.750999987       2.41729879E-07
  0.762000024       3.99559070E-08
  0.773000002      -2.80866971E-07
  0.783999979      -1.07872332E-07
  0.795000017       1.33527550E-07
  0.805999994       3.88868209E-08
  0.816999972      -4.55590019E-08
  0.828000009       4.78347033E-08
  0.838999987       3.59812908E-08
  0.850000024      -7.75395606E-08
  0.861000001      -4.37798136E-08
  0.871999979       2.11979838E-08
  0.883000016      -8.95405563E-08
  0.893999994      -1.23583334E-07
  0.904999971       1.27155701E-07
  0.916000009       2.69214809E-07
  0.926999986       6.18163369E-08
  0.938000023      -7.33043706E-08
  0.949000001       3.17118349E-08
  0.959999979      -3.77645337E-09
  0.971000016      -1.76802857E-07
  0.981999993      -1.19035583E-07
  0.992999971       8.80251108E-08
   1.00399995       1.32930268E-07
   1.01499999       5.38696980E-08
   1.02600002      -1.84981350E-10
   1.03699994      -6.40409255E-08
   1.04799998      -1.46544778E-07
   1.05900002      -1.11578551E-07
   1.07000005       4.81659370E-08
   1.08099997       9.67595071E-08
   1.09200001       7.41530570E-09
   1.10300004       7.33388674E-08
   1.11399996       2.00485161E-07
   1.12500000       5.20130783E-09
   1.13600004      -2.29332159E-07
   1.14699996      -6.63367814E-08
   1.15799999       7.66746240E-08
   1.16900003      -8.91525573E-08
   1.17999995      -3.94137523E-08
   1.19099998       2.18709118E-07
   1.20200002       9.40300922E-08
   1.21300006      -1.55702764E-07
   1.22399998      -5.05521633E-08
   1.23500001      -9.07305964E-09
   1.24600005      -2.07519960E-07
   1.25699997      -7.96153472E-08
   1.26800001       2.75429159E-07
   1.27900004       1.89601153E-07
   1.28999996      -1.80524339E-07
   1.30100000      -2.17489713E-07
   1.31200004       3.37932917E-08
   1.32299995       1.24189611E-07
   1.33399999      -2.08980033E-08
   1.34500003      -5.77390757E-08
   1.35599995       1.41379132E-07
   1.36699998       1.56910986E-07
   1.37800002      -1.45308348E-07
   1.38900006      -1.75985036E-07
