 -0.800000012       0.00000000
 -0.788999975       0.00000000
 -0.777999997       0.00000000
 -0.767000020       0.00000000
 -0.755999982      -1.08694758E-24
 -0.745000005      -5.81736868E-17
 -0.734000027       1.89058601E-16
 -0.722999990       6.97808771E-16
 -0.712000012      -8.37763442E-16
 -0.700999975       7.36133835E-16
 -0.689999998       6.94796520E-15
 -0.679000020      -2.69491177E-15
 -0.667999983      -2.54954478E-14
 -0.657000005       2.25475046E-15
 -0.646000028      -1.78601789E-15
 -0.634999990      -1.94969756E-14
 -0.624000013      -3.71800750E-15
 -0.612999976      -1.86995974E-14
 -0.601999998      -5.26024469E-14
 -0.591000021       6.43713124E-14
 -0.579999983       8.35244553E-14
 -0.569000006      -9.44678905E-14
 -0.558000028      -1.16492970E-13
 -0.546999991       3.00352191E-13
 -0.536000013      -2.34852339E-13
 -0.524999976      -4.79740488E-13
 -0.513999999       8.55258843E-13
 -0.503000021       7.61429277E-13
 -0.492000014      -1.31336565E-12
 -0.481000006      -4.98650112E-13
 -0.469999999       1.57331234E-12
 -0.458999991      -1.60400393E-14
 -0.448000014      -6.43560671E-13
 -0.437000006       2.70377492E-12
 -0.425999999      -1.72061779E-12
 -0.414999992      -8.30751006E-12
 -0.404000014       5.87527249E-12
 -0.393000007       1.01110387E-11
 -0.381999999      -1.00309891E-11
 -0.370999992       1.44438649E-12
 -0.360000014       1.21394570E-11
 -0.349000007      -2.34480334E-11
 -0.338000000       4.64847388E-12
 -0.326999992       3.53812118E-11
 -0.316000015      -5.30303787E-11
 -0.305000007      -5.53357750E-12
 -0.294000000       1.27462346E-10
 -0.282999992      -6.16370427E-11
 -0.272000015      -1.97382236E-10
 -0.261000007       1.32139355E-10
 -0.250000000       1.20444946E-10
 -0.238999993      -2.15585272E-10
 -0.228000000       2.46538123E-10
 -0.216999993       3.61175451E-10
 -0.206000000      -8.07363898E-10
 -0.194999993      -6.46180331E-10
 -0.184000000       9.52748769E-10
 -0.172999993       6.91265212E-10
 -0.162000000      -3.28285010E-10
 -0.150999993      -5.10739395E-10
 -0.140000001      -1.31501610E-09
 -0.128999993      -7.55602581E-10
 -0.118000001       1.00870012E-09
 -0.107000001      -5.16606036E-10
  -9.60000008E-02  -1.86877558E-09
  -8.50000009E-02   1.20834054E-09
  -7.40000010E-02   3.42479356E-09
  -6.30000010E-02   1.60707947E-09
  -5.20000011E-02  -1.94843364E-09
  -4.10000011E-02  -3.90230070E-09
  -2.99999993E-02  -1.89618654E-09
  -1.89999994E-02   1.82469007E-09
  -8.00000038E-03   4.39565850E-09
   3.00000003E-03   1.03869036E-09
   1.40000004E-02   8.97537211E-10
   2.50000004E-02  -1.46730028E-09
   3.59999985E-02  -4.40826753E-09
   4.69999984E-02  -4.64422856E-09
   5.79999983E-02   1.14618648E-09
   6.89999983E-02   1.43711332E-09
   7.99999982E-02  -5.82240522E-09
   9.09999982E-02  -6.31071329E-09
  0.101999998       1.90127363E-08
  0.112999998       1.74276433E-08
  0.123999998      -1.18769119E-08
  0.135000005      -9.17976006E-09
  0.145999998       8.56370974E-09
  0.157000005      -1.02171400E-08
  0.167999998      -1.71953030E-08
  0.179000005      -5.50017809E-09
  0.189999998      -1.75190348E-10
  0.201000005       6.58872423E-09
  0.211999997       1.65610068E-08
  0.223000005       2.98303759E-09
  0.233999997      -6.11461370E-09
  0.245000005       1.86732603E-08
  0.256000012       1.64421667E-08
  0.266999990      -9.74692238E-09
  0.277999997       3.47184637E-09
  0.289000005      -1.52777648E-08
  0.300000012      -3.41722988E-08
  0.310999990       3.52270852E-08
  0.321999997       5.98109366E-08
  0.333000004      -6.12818170E-08
  0.344000012      -4.00108604E-08
  0.354999989       8.45404244E-08
  0.365999997      -1.35546241E-08
  0.377000004      -1.07839455E-07
  0.388000011       3.86653518E-08
  0.398999989       5.91177240E-08
  0.409999996      -7.78692737E-08
  0.421000004      -4.75182311E-08
  0.432000011       1.03486542E-07
  0.442999989       6.77907011E-08
  0.453999996      -2.64685323E-08
  0.465000004      -3.77867764E-08
  0.476000011      -5.01019137E-09
  0.486999989       2.82063795E-08
  0.497999996      -1.51126915E-08
  0.509000003      -3.95555304E-08
  0.519999981       4.94993699E-08
  0.531000018       2.80015762E-08
  0.541999996      -1.06455737E-07
  0.552999973      -1.86516509E-08
  0.564000010       1.39092776E-07
  0.574999988      -1.44849777E-08
  0.586000025      -1.35185843E-07
  0.597000003       2.88509572E-08
  0.607999980       4.05418312E-08
  0.619000018      -1.04120076E-07
  0.629999995      -1.53451172E-08
  0.640999973       8.63670948E-08
  0.652000010      -9.90943327E-09
  0.662999988      -6.55653594E-08
  0.674000025       1.79046165E-08
  0.685000002       8.58490949E-08
  0.695999980       8.93490366E-08
  0.707000017      -5.18472234E-08
  0.717999995      -1.65875960E-07
  0.728999972       5.50932882E-08
  0.740000010       2.07697170E-07
  0.750999987      -2.43910208E-08
  0.762000024      -7.50640297E-08
  0.773000002       1.20855361E-07
  0.783999979      -2.13743032E-08
  0.795000017      -1.47685384E-07
  0.805999994       1.44818600E-07
  0.816999972       2.05311849E-07
  0.828000009      -1.25085691E-07
  0.838999987      -1.69483116E-07
  0.850000024      -1.56493165E-08
  0.861000001      -8.45997832E-08
  0.871999979      -5.15925151E-08
  0.883000016       1.26648530E-07
  0.893999994       3.31547696E-08
  0.904999971      -1.50919732E-07
  0.916000009      -8.84427891E-08
  0.926999986       6.07212414E-08
  0.938000023       1.14908723E-07
  0.949000001       5.94884852E-08
  0.959999979      -6.56853487E-08
  0.971000016      -5.78853943E-08
  0.981999993       2.41183802E-08
  0.992999971      -1.79652222E-08
   1.00399995      -2.50296104E-08
   1.01499999       7.90617491E-08
   1.02600002      -8.32887981E-09
   1.03699994      -1.28369976E-07
   1.04799998       3.92746351E-08
   1.05900002       1.13750346E-07
   1.07000005      -7.94943276E-08
   1.08099997      -4.86861431E-08
   1.09200001       1.07259801E-07
   1.10300004      -3.39959527E-08
   1.11399996      -1.10643185E-07
   1.12500000       1.08292760E-07
   1.13600004       1.18237203E-07
   1.14699996      -1.21500662E-07
   1.15799999      -1.45727270E-07
   1.16900003      -2.42113813E-08
   1.17999995      -2.55778976E-09
   1.19099998       1.13043290E-08
   1.20200002       4.15332799E-08
   1.21300006       3.76838507E-08
   1.22399998       5.55052573E-08
   1.23500001       1.46857309E-08
   1.24600005      -9.53373060E-08
   1.25699997      -4.24167617E-08
   1.26800001       9.94683944E-08
   1.27900004       3.75425842E-08
   1.28999996      -6.79664893E-08
   1.30100000       7.66287656E-09
   1.31200004       3.12061665E-08
   1.32299995      -7.83600598E-08
   1.33399999      -4.73452921E-08
   1.34500003       7.03023701E-08
   1.35599995       3.65717128E-08
   1.36699998      -3.51062934E-09
   1.37800002       6.88486708E-08
   1.38900006       4.07375715E-08
