 -0.800000012       0.00000000
 -0.788999975       0.00000000
 -0.777999997       0.00000000
 -0.767000020       8.57572058E-09
 -0.755999982      -1.56413087E-08
 -0.745000005      -2.54654537E-07
 -0.734000027       3.95114483E-07
 -0.722999990       1.29147691E-06
 -0.712000012      -2.23337338E-06
 -0.700999975      -3.24143798E-06
 -0.689999998       6.90338447E-06
 -0.679000020       4.53899474E-06
 -0.667999983      -1.45192280E-05
 -0.657000005      -2.32132697E-06
 -0.646000028       2.21830542E-05
 -0.634999990      -3.17566355E-06
 -0.624000013      -2.11633760E-05
 -0.612999976       4.90402226E-06
 -0.601999998      -5.54163580E-06
 -0.591000021       2.21771188E-06
 -0.579999983       7.12877081E-05
 -0.569000006      -6.79810364E-06
 -0.558000028      -1.52653854E-04
 -0.546999991      -7.81856897E-07
 -0.536000013       1.89858139E-04
 -0.524999976      -1.86616114E-06
 -0.513999999      -1.54919733E-04
 -0.503000021       2.54980605E-05
 -0.492000014       7.17784060E-05
 -0.481000006      -1.50691885E-05
 -0.469999999       8.28548946E-05
 -0.458999991      -3.82314283E-06
 -0.448000014      -2.85828661E-04
 -0.437000006      -1.36045710E-04
 -0.425999999       1.41968267E-04
 -0.414999992      -3.71910428E-05
 -0.404000014      -2.20542905E-04
 -0.393000007      -2.50322249E-04
 -0.381999999      -5.42242778E-04
 -0.370999992      -6.67878485E-04
 -0.360000014      -4.42490011E-04
 -0.349000007      -7.34743720E-04
 -0.338000000      -1.43213104E-03
 -0.326999992      -1.72545202E-03
 -0.316000015      -2.13329494E-03
 -0.305000007      -3.09417699E-03
 -0.294000000      -3.92614072E-03
 -0.282999992      -4.90418915E-03
 -0.272000015      -6.86718291E-03
 -0.261000007      -9.20837466E-03
 -0.250000000      -1.14357974E-02
 -0.238999993      -1.44614521E-02
 -0.228000000      -1.86480545E-02
 -0.216999993      -2.35423762E-02
 -0.206000000      -2.94675697E-02
 -0.194999993      -3.69388312E-02
 -0.184000000      -4.57919203E-02
 -0.172999993      -5.61381802E-02
 -0.162000000      -6.85755312E-02
 -0.150999993      -8.33032876E-02
 -0.140000001     -0.100304410
 -0.128999993     -0.119959779
 -0.118000001     -0.142603844
 -0.107000001     -0.168061987
  -9.60000008E-02 -0.196286634
  -8.50000009E-02 -0.227646172
  -7.40000010E-02 -0.262007982
  -6.30000010E-02 -0.298765898
  -5.20000011E-02 -0.337858319
  -4.10000011E-02 -0.378990591
  -2.99999993E-02 -0.420747191
  -1.89999994E-02 -0.462143093
  -8.00000038E-03 -0.502855122
   3.00000003E-03 -0.541277766
   1.40000004E-02 -0.575254321
   2.50000004E-02 -0.603555799
   3.59999985E-02 -0.624341607
   4.69999984E-02 -0.634993017
   5.79999983E-02 -0.633873999
   6.89999983E-02 -0.619174480
   7.99999982E-02 -0.588104784
   9.09999982E-02 -0.538946092
  0.101999998     -0.470530659
  0.112999998     -0.380825937
  0.123999998     -0.268953055
  0.135000005     -0.135219455
  0.145999998       2.10359171E-02
  0.157000005      0.199439421
  0.167999998      0.397282690
  0.179000005      0.612516284
  0.189999998      0.843180597
  0.201000005       1.08477259
  0.211999997       1.33244073
  0.223000005       1.58197749
  0.233999997       1.82724679
  0.245000005       2.06139088
  0.256000012       2.27871013
  0.266999990       2.47257018
  0.277999997       2.63575625
  0.289000005       2.76261616
  0.300000012       2.84721637
  0.310999990       2.88303232
  0.321999997       2.86594558
  0.333000004       2.79314852
  0.344000012       2.66122317
  0.354999989       2.46890306
  0.365999997       2.21761441
  0.377000004       1.90863502
  0.388000011       1.54430497
  0.398999989       1.13035154
  0.409999996      0.673838854
  0.421000004      0.181900889
  0.432000011     -0.336184889
  0.442999989     -0.869066536
  0.453999996      -1.40552080
  0.465000004      -1.93408668
  0.476000011      -2.44184875
  0.486999989      -2.91595888
  0.497999996      -3.34494400
  0.509000003      -3.71746039
  0.519999981      -4.02252293
  0.531000018      -4.25179386
  0.541999996      -4.39901018
  0.552999973      -4.45862293
  0.564000010      -4.42813730
  0.574999988      -4.30876875
  0.586000025      -4.10253000
  0.597000003      -3.81349397
  0.607999980      -3.45039797
  0.619000018      -3.02327943
  0.629999995      -2.54201961
  0.640999973      -2.02007031
  0.652000010      -1.47271848
  0.662999988     -0.913052499
  0.674000025     -0.354977876
  0.685000002      0.185795888
  0.695999980      0.696666718
  0.707000017       1.16729808
  0.717999995       1.58645725
  0.728999972       1.94567358
  0.740000010       2.24061251
  0.750999987       2.46719265
  0.762000024       2.62307191
  0.773000002       2.71048641
  0.783999979       2.73277330
  0.795000017       2.69330525
  0.805999994       2.59878778
  0.816999972       2.45763493
  0.828000009       2.27705169
  0.838999987       2.06526089
  0.850000024       1.83206606
  0.861000001       1.58574867
  0.871999979       1.33340633
  0.883000016       1.08289981
  0.893999994      0.841153860
  0.904999971      0.612775803
  0.916000009      0.401800513
  0.926999986      0.212064162
  0.938000023       4.54949066E-02
  0.949000001      -9.74477381E-02
  0.959999979     -0.216142401
  0.971000016     -0.310717225
  0.981999993     -0.383064926
  0.992999971     -0.435116887
   1.00399995     -0.468212575
   1.01499999     -0.484843701
   1.02600002     -0.488096088
   1.03699994     -0.479842454
   1.04799998     -0.462059945
   1.05900002     -0.437720925
   1.07000005     -0.408733636
   1.08099997     -0.376101077
   1.09200001     -0.341832846
   1.10300004     -0.307620853
   1.11399996     -0.273715019
   1.12500000     -0.240915880
   1.13600004     -0.210505813
   1.14699996     -0.182374239
   1.15799999     -0.156299755
   1.16900003     -0.133128166
   1.17999995     -0.112871036
   1.19099998      -9.46632177E-02
   1.20200002      -7.87067562E-02
   1.21300006      -6.53502345E-02
   1.22399998      -5.37889004E-02
   1.23500001      -4.36587781E-02
   1.24600005      -3.54369394E-02
   1.25699997      -2.87258942E-02
   1.26800001      -2.27866080E-02
   1.27900004      -1.79007500E-02
   1.28999996      -1.41685111E-02
   1.30100000      -1.09016243E-02
   1.31200004      -8.10882915E-03
   1.32299995      -6.17757672E-03
   1.33399999      -4.58703982E-03
   1.34500003      -3.03895888E-03
   1.35599995      -2.05895398E-03
   1.36699998      -1.42626197E-03
   1.37800002      -5.52670157E-04
   1.38900006       7.83863943E-05
