 -0.800000012       0.00000000
 -0.788999975       0.00000000
 -0.777999997       0.00000000
 -0.767000020      -4.68860038E-28
 -0.755999982       7.79431289E-20
 -0.745000005      -2.90174860E-17
 -0.734000027       5.57534754E-17
 -0.722999990      -7.70892097E-17
 -0.712000012      -2.14795930E-15
 -0.700999975       5.71399829E-15
 -0.689999998       7.04723948E-16
 -0.679000020      -3.84071877E-14
 -0.667999983       6.89799509E-14
 -0.657000005       6.70560477E-14
 -0.646000028      -3.58476405E-13
 -0.634999990       4.05497203E-14
 -0.624000013       9.08681496E-13
 -0.612999976      -3.42300244E-13
 -0.601999998      -1.19901192E-12
 -0.591000021       7.66232564E-13
 -0.579999983       2.68705360E-13
 -0.569000006      -1.02622262E-12
 -0.558000028       2.69646328E-12
 -0.546999991       1.01203312E-12
 -0.536000013      -8.15088275E-12
 -0.524999976      -5.63316863E-13
 -0.513999999       1.35925628E-11
 -0.503000021       1.01701752E-12
 -0.492000014      -1.53876755E-11
 -0.481000006      -1.09790736E-11
 -0.469999999       2.09921733E-11
 -0.458999991       5.04752559E-11
 -0.448000014      -4.08293885E-11
 -0.437000006      -1.35427794E-10
 -0.425999999       8.15989290E-11
 -0.414999992       2.38817105E-10
 -0.404000014      -1.79926352E-10
 -0.393000007      -2.56293820E-10
 -0.381999999       4.11750828E-10
 -0.370999992       5.70356089E-11
 -0.360000014      -8.12263645E-10
 -0.349000007       3.46131401E-10
 -0.338000000       1.29353483E-09
 -0.326999992      -6.65580591E-10
 -0.316000015      -1.62457792E-09
 -0.305000007       5.18996790E-10
 -0.294000000       1.63624636E-09
 -0.282999992       2.60864580E-10
 -0.272000015      -1.79163606E-09
 -0.261000007      -1.43665235E-09
 -0.250000000       3.52231599E-09
 -0.238999993       2.67952838E-09
 -0.228000000      -7.97342903E-09
 -0.216999993      -3.72891451E-09
 -0.206000000       1.39046072E-08
 -0.194999993       4.24295532E-09
 -0.184000000      -1.65936385E-08
 -0.172999993      -3.28280048E-09
 -0.162000000       1.00394546E-08
 -0.150999993      -1.99720152E-09
 -0.140000001       4.20174162E-09
 -0.128999993       9.50980006E-09
 -0.118000001      -1.72398220E-08
 -0.107000001      -1.00239426E-08
  -9.60000008E-02   2.38929871E-08
  -8.50000009E-02  -6.56155397E-09
  -7.40000010E-02  -3.47834046E-08
  -6.30000010E-02   3.58688723E-08
  -5.20000011E-02   7.08576309E-08
  -4.10000011E-02  -4.54097844E-08
  -2.99999993E-02  -1.31260364E-07
  -1.89999994E-02  -3.93364397E-10
  -8.00000038E-03   1.41194946E-07
   3.00000003E-03   2.44415350E-08
   1.40000004E-02  -8.80653488E-08
   2.50000004E-02   9.58164037E-08
   3.59999985E-02   1.05924038E-07
   4.69999984E-02  -3.02328431E-07
   5.79999983E-02  -2.65380180E-07
   6.89999983E-02   4.53633561E-07
   7.99999982E-02   4.88852493E-07
   9.09999982E-02  -4.21300228E-07
  0.101999998      -5.28852354E-07
  0.112999998       4.18367534E-07
  0.123999998       5.48301841E-07
  0.135000005      -4.02875798E-07
  0.145999998      -6.04658396E-07
  0.157000005       7.15935045E-08
  0.167999998       1.08662888E-07
  0.179000005       1.05012440E-07
  0.189999998       9.56618237E-07
  0.201000005       3.65854788E-07
  0.211999997      -1.99619558E-06
  0.223000005      -1.36407095E-06
  0.233999997       2.35610014E-06
  0.245000005       2.21089158E-06
  0.256000012      -1.96260044E-06
  0.266999990      -2.15604996E-06
  0.277999997       1.57745069E-06
  0.289000005       1.41294004E-06
  0.300000012      -1.81816631E-06
  0.310999990      -8.98878568E-07
  0.321999997       2.41704856E-06
  0.333000004       6.58387535E-07
  0.344000012      -3.67680582E-06
  0.354999989      -1.45844251E-06
  0.365999997       4.45224350E-06
  0.377000004       2.57505894E-06
  0.388000011      -4.34832646E-06
  0.398999989      -3.14119325E-06
  0.409999996       4.11121619E-06
  0.421000004       3.98321708E-06
  0.432000011      -2.61943228E-06
  0.442999989      -3.23746349E-06
  0.453999996       1.53449571E-06
  0.465000004       1.75963044E-06
  0.476000011      -2.10474423E-06
  0.486999989      -2.14241732E-06
  0.497999996       1.00210423E-06
  0.509000003       2.14361762E-06
  0.519999981       1.04160586E-06
  0.531000018      -2.16177895E-07
  0.541999996      -9.85179668E-07
  0.552999973      -3.10842370E-06
  0.564000010      -2.56009207E-06
  0.574999988       5.10195332E-06
  0.586000025       7.94496918E-06
  0.597000003      -3.47835157E-06
  0.607999980      -1.06601537E-05
  0.619000018      -3.24004020E-07
  0.629999995       7.38079461E-06
  0.640999973      -1.97440819E-08
  0.652000010      -4.27646773E-06
  0.662999988       3.13371174E-06
  0.674000025       6.42703435E-06
  0.685000002      -1.41526857E-06
  0.695999980      -6.86386875E-06
  0.707000017      -1.43767534E-06
  0.717999995       4.64164441E-06
  0.728999972       4.98669124E-07
  0.740000010      -5.51474250E-06
  0.750999987      -1.96443762E-06
  0.762000024       4.16194962E-06
  0.773000002       4.45150090E-06
  0.783999979       4.20748756E-06
  0.795000017       1.30984847E-06
  0.805999994      -1.04856435E-05
  0.816999972      -1.36604303E-05
  0.828000009       4.96474149E-06
  0.838999987       2.12301620E-05
  0.850000024       9.11769257E-06
  0.861000001      -1.72121217E-05
  0.871999979      -1.91644649E-05
  0.883000016       5.97843064E-06
  0.893999994       1.75706900E-05
  0.904999971       2.39929341E-06
  0.916000009      -7.21544575E-06
  0.926999986      -2.46754638E-07
  0.938000023      -1.10499741E-06
  0.949000001      -6.62078673E-06
  0.959999979       2.17817956E-06
  0.971000016       9.57246721E-06
  0.981999993       9.62273361E-07
  0.992999971      -4.58160275E-06
   1.00399995      -5.07381628E-07
   1.01499999      -2.77278423E-06
   1.02600002      -4.40002941E-06
   1.03699994       4.85827650E-06
   1.04799998       6.57558894E-06
   1.05900002      -4.74814306E-06
   1.07000005      -6.49980529E-06
   1.08099997       5.34668607E-06
   1.09200001       1.01602755E-05
   1.10300004      -3.35676503E-07
   1.11399996      -1.34529491E-05
   1.12500000      -1.21235025E-05
   1.13600004       4.77888261E-06
   1.14699996       1.56332771E-05
   1.15799999       5.90255149E-06
   1.16900003      -7.94385960E-06
   1.17999995      -7.23581206E-06
   1.19099998      -5.59026532E-08
   1.20200002       4.00361614E-07
   1.21300006       2.24735317E-07
   1.22399998       5.77135734E-06
   1.23500001       6.56459133E-06
   1.24600005      -2.92219602E-06
   1.25699997      -9.35084336E-06
   1.26800001      -4.46029298E-06
   1.27900004       2.29272086E-06
   1.28999996       5.00611259E-06
   1.30100000       6.36617233E-06
   1.31200004       2.88850492E-06
   1.32299995      -5.40863857E-06
   1.33399999      -6.05888044E-06
   1.34500003       2.20233733E-06
   1.35599995       4.36018399E-06
   1.36699998      -1.72310979E-06
   1.37800002      -3.11658891E-06
   1.38900006       1.44302237E-06
