 -0.959999979       0.00000000
 -0.925000012       0.00000000
 -0.889999986      -3.88838744E-12
 -0.855000019       1.29031378E-12
 -0.819999993      -1.29626145E-11
 -0.785000026       2.62682959E-10
 -0.750000000       8.10631340E-10
 -0.714999974       1.45067833E-10
 -0.680000007      -6.98763658E-10
 -0.644999981       4.48549503E-10
 -0.610000014       9.66622893E-10
 -0.574999988       7.77304709E-09
 -0.540000021       1.71173598E-09
 -0.504999995      -4.63241134E-09
 -0.469999999       2.18651728E-08
 -0.435000002       1.30656606E-08
 -0.400000006      -6.69111699E-09
 -0.365000010      -9.79923342E-08
 -0.330000013       5.26441575E-08
 -0.294999987       2.27487817E-07
 -0.259999990      -2.63615618E-08
 -0.224999994      -1.27695913E-07
 -0.189999998       1.28648097E-07
 -0.155000001       1.23979632E-07
 -0.119999997      -5.41862846E-07
  -8.50000009E-02  -5.09640472E-07
  -5.00000007E-02   4.44612368E-07
  -1.49999997E-02   6.62490152E-07
   1.99999996E-02   1.23847119E-08
   5.49999997E-02  -2.42813542E-07
   9.00000036E-02   1.25530875E-07
  0.125000000      -4.46482659E-07
  0.159999996      -8.07711672E-07
  0.194999993       1.00503598E-06
  0.230000004       1.67125802E-06
  0.264999986      -6.70580107E-07
  0.300000012      -1.86031093E-06
  0.335000008       1.59059141E-07
  0.370000005       1.97637951E-06
  0.405000001       1.40470127E-06
  0.439999998      -1.02108584E-06
  0.474999994      -3.07815276E-06
  0.509999990      -2.54458723E-06
  0.545000017       7.16092472E-07
  0.579999983       4.01560555E-06
  0.615000010       3.02137869E-06
  0.649999976      -1.16108436E-06
  0.685000002      -3.59406226E-06
  0.720000029      -2.27745272E-06
  0.754999995       1.09961479E-06
  0.790000021       3.27070711E-06
  0.824999988       1.89637672E-06
  0.860000014      -2.05106744E-06
  0.894999981      -4.05414130E-06
  0.930000007      -1.17435513E-06
  0.964999974       3.00311262E-06
   1.00000000       3.37560800E-06
   1.03499997       1.32162867E-07
   1.07000005      -2.52416453E-06
   1.10500002      -1.90484866E-06
   1.13999999       6.74863486E-07
   1.17499995       1.86423733E-06
   1.21000004       4.70321226E-07
   1.24500000      -8.81206233E-07
   1.27999997      -3.56609661E-07
   1.31500006       4.94380402E-07
   1.35000002       5.15581974E-07
   1.38499999       2.25477336E-07
   1.41999996      -2.40563025E-07
   1.45500004      -5.48656601E-07
   1.49000001      -1.60597196E-07
   1.52499998       1.88058678E-07
   1.55999994       1.17507099E-07
   1.59500003       4.73029417E-07
   1.63000000       7.40712892E-07
