 -0.959999979       0.00000000
 -0.925000012      -2.34188823E-29
 -0.889999986       4.55165770E-27
 -0.855000019      -3.12804673E-26
 -0.819999993       8.55197586E-13
 -0.785000026      -6.38572398E-12
 -0.750000000      -1.83519640E-11
 -0.714999974      -2.23057808E-10
 -0.680000007       7.56152807E-10
 -0.644999981       1.77319756E-10
 -0.610000014      -1.46374268E-09
 -0.574999988       1.92403404E-09
 -0.540000021       3.34064421E-09
 -0.504999995       4.85391949E-10
 -0.469999999      -7.80908049E-09
 -0.435000002      -8.41896153E-09
 -0.400000006       1.67016410E-08
 -0.365000010       2.82381474E-09
 -0.330000013      -4.20287911E-08
 -0.294999987       1.65586176E-08
 -0.259999990       1.51487981E-07
 -0.224999994      -8.45394084E-08
 -0.189999998      -1.52038936E-07
 -0.155000001       1.67082391E-07
 -0.119999997      -1.48950207E-07
  -8.50000009E-02  -3.36968384E-07
  -5.00000007E-02   1.69653859E-07
  -1.49999997E-02   3.14201884E-07
   1.99999996E-02   3.06287916E-07
   5.49999997E-02   2.59441748E-07
   9.00000036E-02  -3.63856685E-07
  0.125000000      -4.34017863E-07
  0.159999996       1.13857212E-07
  0.194999993      -1.94375161E-07
  0.230000004      -1.63658612E-07
  0.264999986       3.11217406E-07
  0.300000012       1.12311383E-07
  0.335000008      -1.00749503E-07
  0.370000005      -2.52141604E-07
  0.405000001       1.05474506E-07
  0.439999998       8.91862783E-07
  0.474999994      -3.27691168E-07
  0.509999990      -1.21182427E-06
  0.545000017       7.76691763E-07
  0.579999983       3.10020596E-07
  0.615000010      -1.70843475E-06
  0.649999976       8.45201669E-07
  0.685000002       2.16187618E-06
  0.720000029      -1.19833965E-06
  0.754999995      -3.25363686E-07
  0.790000021       1.25628219E-06
  0.824999988      -2.30025125E-06
  0.860000014      -1.52513439E-06
  0.894999981       2.54204542E-06
  0.930000007       3.26393379E-09
  0.964999974      -1.67946871E-06
   1.00000000       2.66384632E-06
   1.03499997       9.43797090E-07
   1.07000005      -3.97811982E-06
   1.10500002      -2.37258050E-07
   1.13999999       3.06190282E-06
   1.17499995      -5.25587666E-07
   1.21000004      -8.14572047E-07
   1.24500000       1.92548828E-06
   1.27999997      -2.63218851E-08
   1.31500006      -1.94431300E-06
   1.35000002       1.42670260E-07
   1.38499999       9.92921741E-07
   1.41999996      -3.39369677E-07
   1.45500004      -6.50403820E-07
   1.49000001      -7.00710672E-08
   1.52499998       7.42469339E-08
   1.55999994       7.53717089E-09
   1.59500003       8.20063576E-07
   1.63000000       1.55408645E-06
