 -0.800000012       0.00000000
 -0.788999975       0.00000000
 -0.777999997       0.00000000
 -0.767000020      -8.07917910E-09
 -0.755999982       2.91881097E-08
 -0.745000005       4.37505818E-08
 -0.734000027      -1.25718245E-07
 -0.722999990      -1.08498725E-07
 -0.712000012       3.02223839E-07
 -0.700999975       1.21346289E-07
 -0.689999998      -5.17289095E-07
 -0.679000020       8.45975663E-08
 -0.667999983       6.61913589E-07
 -0.657000005      -6.03944216E-07
 -0.646000028      -3.52454379E-07
 -0.634999990       1.75078310E-06
 -0.624000013      -4.46105275E-07
 -0.612999976      -3.62834817E-06
 -0.601999998       1.00960585E-06
 -0.591000021       5.14954581E-06
 -0.579999983      -9.80011009E-07
 -0.569000006      -4.62944490E-06
 -0.558000028       1.71172690E-06
 -0.546999991       3.25446763E-06
 -0.536000013      -2.23002462E-06
 -0.524999976      -1.55585349E-06
 -0.513999999       1.49669040E-06
 -0.503000021      -6.56440079E-07
 -0.492000014      -3.68724784E-07
 -0.481000006       1.94361064E-06
 -0.469999999      -5.11861117E-07
 -0.458999991       4.35538709E-07
 -0.448000014       5.34689798E-06
 -0.437000006       9.38259802E-07
 -0.425999999      -4.25098642E-06
 -0.414999992       3.66146151E-06
 -0.404000014       8.76444574E-06
 -0.393000007       2.95333848E-06
 -0.381999999       6.07473112E-06
 -0.370999992       1.68623556E-05
 -0.360000014       1.67220314E-05
 -0.349000007       1.72137698E-05
 -0.338000000       3.36907069E-05
 -0.326999992       5.10000973E-05
 -0.316000015       6.13318407E-05
 -0.305000007       7.91917628E-05
 -0.294000000       1.08082939E-04
 -0.282999992       1.44696998E-04
 -0.272000015       1.94946653E-04
 -0.261000007       2.57287087E-04
 -0.250000000       3.28780967E-04
 -0.238999993       4.24177822E-04
 -0.228000000       5.52591286E-04
 -0.216999993       7.07327679E-04
 -0.206000000       8.97560560E-04
 -0.194999993       1.14310486E-03
 -0.184000000       1.44402659E-03
 -0.172999993       1.80165260E-03
 -0.162000000       2.24165572E-03
 -0.150999993       2.78305495E-03
 -0.140000001       3.42443283E-03
 -0.128999993       4.17621667E-03
 -0.118000001       5.06535871E-03
 -0.107000001       6.10740017E-03
  -9.60000008E-02   7.30663119E-03
  -8.50000009E-02   8.67422204E-03
  -7.40000010E-02   1.02227479E-02
  -6.30000010E-02   1.19534303E-02
  -5.20000011E-02   1.38600096E-02
  -4.10000011E-02   1.59329139E-02
  -2.99999993E-02   1.81527399E-02
  -1.89999994E-02   2.04858743E-02
  -8.00000038E-03   2.28837021E-02
   3.00000003E-03   2.52784453E-02
   1.40000004E-02   2.75831725E-02
   2.50000004E-02   2.96956655E-02
   3.59999985E-02   3.14912871E-02
   4.69999984E-02   3.28135975E-02
   5.79999983E-02   3.34812403E-02
   6.89999983E-02   3.32955047E-02
   7.99999982E-02   3.20349596E-02
   9.09999982E-02   2.94559654E-02
  0.101999998       2.53024232E-02
  0.112999998       1.93100981E-02
  0.123999998       1.12121245E-02
  0.135000005       7.50990061E-04
  0.145999998      -1.23098064E-02
  0.157000005      -2.81695165E-02
  0.167999998      -4.69767936E-02
  0.179000005      -6.88266829E-02
  0.189999998      -9.37377512E-02
  0.201000005     -0.121618025
  0.211999997     -0.152270481
  0.223000005     -0.185400739
  0.233999997     -0.220575124
  0.245000005     -0.257203907
  0.256000012     -0.294580609
  0.266999990     -0.331880301
  0.277999997     -0.368131250
  0.289000005     -0.402255982
  0.300000012     -0.433121175
  0.310999990     -0.459533066
  0.321999997     -0.480261922
  0.333000004     -0.494110972
  0.344000012     -0.499955207
  0.354999989     -0.496773899
  0.365999997     -0.483712375
  0.377000004     -0.460122734
  0.388000011     -0.425594836
  0.398999989     -0.380007505
  0.409999996     -0.323549896
  0.421000004     -0.256723017
  0.432000011     -0.180375129
  0.442999989      -9.57042724E-02
  0.453999996      -4.19237139E-03
  0.465000004       9.24208164E-02
  0.476000011      0.192126647
  0.486999989      0.292724997
  0.497999996      0.391942978
  0.509000003      0.487471461
  0.519999981      0.576996028
  0.531000018      0.658317447
  0.541999996      0.729459584
  0.552999973      0.788686693
  0.564000010      0.834543228
  0.574999988      0.865959346
  0.586000025      0.882294118
  0.597000003      0.883300066
  0.607999980      0.869128764
  0.619000018      0.840371132
  0.629999995      0.798019826
  0.640999973      0.743388414
  0.652000010      0.678078353
  0.662999988      0.603942692
  0.674000025      0.523000062
  0.685000002      0.437351018
  0.695999980      0.349111170
  0.707000017      0.260348409
  0.717999995      0.173034847
  0.728999972       8.89820084E-02
  0.740000010       9.76089295E-03
  0.750999987      -6.33131340E-02
  0.762000024     -0.129159674
  0.773000002     -0.186980739
  0.783999979     -0.236301467
  0.795000017     -0.276908517
  0.805999994     -0.308804721
  0.816999972     -0.332243770
  0.828000009     -0.347703993
  0.838999987     -0.355789572
  0.850000024     -0.357203782
  0.861000001     -0.352768183
  0.871999979     -0.343365639
  0.883000016     -0.329861015
  0.893999994     -0.313096792
  0.904999971     -0.293901950
  0.916000009     -0.273047686
  0.926999986     -0.251209557
  0.938000023     -0.228981957
  0.949000001     -0.206890360
  0.959999979     -0.185366392
  0.971000016     -0.164736867
  0.981999993     -0.145251170
  0.992999971     -0.127099335
   1.00399995     -0.110402919
   1.01499999      -9.52141583E-02
   1.02600002      -8.15369636E-02
   1.03699994      -6.93460777E-02
   1.04799998      -5.85897639E-02
   1.05900002      -4.91841324E-02
   1.07000005      -4.10232916E-02
   1.08099997      -3.40030901E-02
   1.09200001      -2.80212052E-02
   1.10300004      -2.29602978E-02
   1.11399996      -1.87011864E-02
   1.12500000      -1.51454890E-02
   1.13600004      -1.22011080E-02
   1.14699996      -9.76875331E-03
   1.15799999      -7.76337693E-03
   1.16900003      -6.12077350E-03
   1.17999995      -4.77759494E-03
   1.19099998      -3.67446360E-03
   1.20200002      -2.77127931E-03
   1.21300006      -2.03653751E-03
   1.22399998      -1.43605610E-03
   1.23500001      -9.43443389E-04
   1.24600005      -5.45844669E-04
   1.25699997      -2.34576160E-04
   1.26800001       2.46968921E-06
   1.27900004       1.77970156E-04
   1.28999996       2.97021412E-04
   1.30100000       3.60696315E-04
   1.31200004       3.79200006E-04
   1.32299995       3.64628038E-04
   1.33399999       3.16780002E-04
   1.34500003       2.40180088E-04
   1.35599995       1.54901543E-04
   1.36699998       6.80445446E-05
   1.37800002      -2.87503972E-05
   1.38900006      -1.23004822E-04
