 -0.959999979       0.00000000
 -0.925000012       0.00000000
 -0.889999986       6.44513622E-23
 -0.855000019       1.29916404E-22
 -0.819999993      -1.93252684E-14
 -0.785000026      -1.12064465E-13
 -0.750000000       6.34625409E-14
 -0.714999974       3.23777355E-13
 -0.680000007       2.30747778E-12
 -0.644999981      -9.27086272E-12
 -0.610000014       1.63653444E-12
 -0.574999988       5.07574842E-12
 -0.540000021       2.69764835E-11
 -0.504999995      -1.20965662E-12
 -0.469999999      -9.58313637E-11
 -0.435000002      -3.64708506E-11
 -0.400000006       4.32294166E-11
 -0.365000010      -2.03359746E-10
 -0.330000013       5.90944349E-10
 -0.294999987      -4.22823665E-10
 -0.259999990       6.12983692E-11
 -0.224999994       1.29519406E-09
 -0.189999998      -1.48112622E-09
 -0.155000001      -4.09779366E-09
 -0.119999997       3.77861920E-09
  -8.50000009E-02   6.50478738E-09
  -5.00000007E-02  -5.74261749E-09
  -1.49999997E-02  -5.03957009E-09
   1.99999996E-02   6.41668763E-09
   5.49999997E-02   1.32735756E-09
   9.00000036E-02  -1.76256332E-09
  0.125000000       6.06329609E-09
  0.159999996      -5.66972164E-11
  0.194999993      -4.95747088E-09
  0.230000004       2.14679141E-09
  0.264999986       7.33591965E-10
  0.300000012       1.05404139E-08
  0.335000008       4.74416284E-09
  0.370000005      -3.89632255E-08
  0.405000001      -3.11112878E-08
  0.439999998       4.01473770E-08
  0.474999994       5.56317836E-08
  0.509999990       6.46309672E-09
  0.545000017      -3.68057478E-08
  0.579999983      -4.67688928E-08
  0.615000010       7.03259628E-09
  0.649999976       8.78835209E-08
  0.685000002       7.55063496E-08
  0.720000029      -2.31104202E-08
  0.754999995      -8.52165343E-08
  0.790000021      -8.14792145E-08
  0.824999988      -1.84628721E-08
  0.860000014       3.64468562E-08
  0.894999981       3.62491441E-08
  0.930000007       1.11617311E-08
  0.964999974      -2.08452793E-08
   1.00000000      -6.93181335E-08
   1.03499997      -5.77189994E-08
   1.07000005       4.19396393E-08
   1.10500002       7.45048894E-08
   1.13999999       3.00627412E-09
   1.17499995      -5.08166380E-08
   1.21000004      -8.12114109E-08
   1.24500000      -9.19522378E-08
   1.27999997      -2.05108162E-08
   1.31500006       6.86592045E-08
   1.35000002       5.67079681E-08
   1.38499999       3.95288113E-09
   1.41999996      -1.92922194E-08
   1.45500004      -2.44002241E-08
   1.49000001      -4.54486404E-09
   1.52499998       2.55045656E-08
   1.55999994       9.32420097E-09
   1.59500003      -3.71787081E-08
   1.63000000      -5.02265465E-08
