 -0.959999979       0.00000000
 -0.925000012       4.68220678E-05
 -0.889999986       9.82068814E-05
 -0.855000019       1.85607336E-04
 -0.819999993       4.38217656E-04
 -0.785000026       9.89834778E-04
 -0.750000000       2.06027157E-03
 -0.714999974       4.10815841E-03
 -0.680000007       7.84524903E-03
 -0.644999981       1.42488191E-02
 -0.610000014       2.45994888E-02
 -0.574999988       4.02918048E-02
 -0.540000021       6.23584837E-02
 -0.504999995       9.07746851E-02
 -0.469999999      0.123455457
 -0.435000002      0.155086622
 -0.400000006      0.176351234
 -0.365000010      0.174112365
 -0.330000013      0.132979795
 -0.294999987       3.86244729E-02
 -0.259999990     -0.117378153
 -0.224999994     -0.332386047
 -0.189999998     -0.588955522
 -0.155000001     -0.854169548
 -0.119999997      -1.08318138
  -8.50000009E-02  -1.22696781
  -5.00000007E-02  -1.24256265
  -1.49999997E-02  -1.10293031
   1.99999996E-02 -0.803835452
   5.49999997E-02 -0.366155237
   9.00000036E-02  0.166537255
  0.125000000      0.733904302
  0.159999996       1.26657367
  0.194999993       1.69464278
  0.230000004       1.95683181
  0.264999986       2.01022315
  0.300000012       1.83968127
  0.335000008       1.46472657
  0.370000005      0.940592408
  0.405000001      0.350681812
  0.439999998     -0.209672183
  0.474999994     -0.654580534
  0.509999990     -0.927764952
  0.545000017      -1.01465452
  0.579999983     -0.941982031
  0.615000010     -0.765221238
  0.649999976     -0.548937321
  0.685000002     -0.347478628
  0.720000029     -0.192611277
  0.754999995      -9.13203657E-02
  0.790000021      -3.25720087E-02
  0.824999988       1.51464774E-03
  0.860000014       2.54339390E-02
  0.894999981       4.48191613E-02
  0.930000007       5.68756685E-02
  0.964999974       5.52011691E-02
   1.00000000       3.58191766E-02
   1.03499997       1.24782417E-03
   1.07000005      -3.91984321E-02
   1.10500002      -7.27942884E-02
   1.13999999      -8.87339711E-02
   1.17499995      -8.27765688E-02
   1.21000004      -5.89430220E-02
   1.24500000      -2.75016557E-02
   1.27999997      -2.52828613E-04
   1.31500006       1.46685215E-02
   1.35000002       1.60316732E-02
   1.38499999       9.28479154E-03
   1.41999996       3.11786286E-03
   1.45500004       4.65461938E-03
   1.49000001       1.56855788E-02
   1.52499998       3.17896791E-02
   1.55999994       4.47595529E-02
   1.59500003       4.70083393E-02
   1.63000000       3.55794132E-02
