 -0.800000012       0.00000000
 -0.788999975       0.00000000
 -0.777999997       0.00000000
 -0.767000020       0.00000000
 -0.755999982       0.00000000
 -0.745000005      -2.87178891E-13
 -0.734000027       1.37521700E-12
 -0.722999990      -5.88009285E-12
 -0.712000012       1.16918636E-11
 -0.700999975       5.23368198E-12
 -0.689999998      -6.66817920E-11
 -0.679000020       9.22595333E-11
 -0.667999983       9.21086193E-11
 -0.657000005      -4.20618262E-10
 -0.646000028       2.29864253E-10
 -0.634999990       9.32485200E-10
 -0.624000013      -1.34599565E-09
 -0.612999976      -1.22790578E-09
 -0.601999998       3.06078318E-09
 -0.591000021       1.02834108E-09
 -0.579999983      -3.06849368E-09
 -0.569000006      -1.60113733E-09
 -0.558000028      -4.71424677E-09
 -0.546999991       6.66489042E-09
 -0.536000013       3.03552596E-08
 -0.524999976      -1.94352232E-08
 -0.513999999      -8.32556069E-08
 -0.503000021       3.38748727E-08
 -0.492000014       1.57691730E-07
 -0.481000006      -2.83835639E-08
 -0.469999999      -2.10878682E-07
 -0.458999991      -1.82446556E-08
 -0.448000014       1.57167975E-07
 -0.437000006       7.72820101E-08
 -0.425999999       7.30837826E-08
 -0.414999992      -3.66817794E-08
 -0.404000014      -3.98786227E-07
 -0.393000007      -1.91837330E-07
 -0.381999999       5.43411772E-07
 -0.370999992       4.30360927E-07
 -0.360000014      -3.78095365E-07
 -0.349000007      -3.80865771E-07
 -0.338000000       2.37422341E-07
 -0.326999992       3.80025995E-07
 -0.316000015       5.32079909E-08
 -0.305000007      -6.07478171E-07
 -0.294000000      -1.37596032E-06
 -0.282999992      -1.45152933E-06
 -0.272000015      -1.63810932E-06
 -0.261000007      -3.54163103E-06
 -0.250000000      -5.76829325E-06
 -0.238999993      -6.57749752E-06
 -0.228000000      -8.27431359E-06
 -0.216999993      -1.30332019E-05
 -0.206000000      -1.92129919E-05
 -0.194999993      -2.58545533E-05
 -0.184000000      -3.44635446E-05
 -0.172999993      -4.58693539E-05
 -0.162000000      -6.13790617E-05
 -0.150999993      -8.37668922E-05
 -0.140000001      -1.13360038E-04
 -0.128999993      -1.49127300E-04
 -0.118000001      -1.94144828E-04
 -0.107000001      -2.53602397E-04
  -9.60000008E-02  -3.30319075E-04
  -8.50000009E-02  -4.27040068E-04
  -7.40000010E-02  -5.48339915E-04
  -6.30000010E-02  -6.98868185E-04
  -5.20000011E-02  -8.84806155E-04
  -4.10000011E-02  -1.11487159E-03
  -2.99999993E-02  -1.39663252E-03
  -1.89999994E-02  -1.73688459E-03
  -8.00000038E-03  -2.14605872E-03
   3.00000003E-03  -2.63637654E-03
   1.40000004E-02  -3.21824732E-03
   2.50000004E-02  -3.90264858E-03
   3.59999985E-02  -4.70191939E-03
   4.69999984E-02  -5.62699325E-03
   5.79999983E-02  -6.68911636E-03
   6.89999983E-02  -7.90101662E-03
   7.99999982E-02  -9.27152205E-03
   9.09999982E-02  -1.08042322E-02
  0.101999998      -1.25024160E-02
  0.112999998      -1.43679036E-02
  0.123999998      -1.63961668E-02
  0.135000005      -1.85769591E-02
  0.145999998      -2.08948571E-02
  0.157000005      -2.33264901E-02
  0.167999998      -2.58417111E-02
  0.179000005      -2.84054447E-02
  0.189999998      -3.09743807E-02
  0.201000005      -3.34959477E-02
  0.211999997      -3.59120481E-02
  0.223000005      -3.81595194E-02
  0.233999997      -4.01689038E-02
  0.245000005      -4.18676175E-02
  0.256000012      -4.31824550E-02
  0.266999990      -4.40389104E-02
  0.277999997      -4.43636030E-02
  0.289000005      -4.40891013E-02
  0.300000012      -4.31553461E-02
  0.310999990      -4.15100083E-02
  0.321999997      -3.91115583E-02
  0.333000004      -3.59317698E-02
  0.344000012      -3.19559164E-02
  0.354999989      -2.71841101E-02
  0.365999997      -2.16336437E-02
  0.377000004      -1.53383175E-02
  0.388000011      -8.34618043E-03
  0.398999989      -7.19713978E-04
  0.409999996       7.46430457E-03
  0.421000004       1.61181260E-02
  0.432000011       2.51450650E-02
  0.442999989       3.44393589E-02
  0.453999996       4.38892171E-02
  0.465000004       5.33810593E-02
  0.476000011       6.27999529E-02
  0.486999989       7.20302314E-02
  0.497999996       8.09580907E-02
  0.509000003       8.94715562E-02
  0.519999981       9.74600241E-02
  0.531000018      0.104816653
  0.541999996      0.111438446
  0.552999973      0.117223397
  0.564000010      0.122070953
  0.574999988      0.125883937
  0.586000025      0.128567889
  0.597000003      0.130031005
  0.607999980      0.130186602
  0.619000018      0.128954768
  0.629999995      0.126264334
  0.640999973      0.122056909
  0.652000010      0.116291150
  0.662999988      0.108946510
  0.674000025      0.100027248
  0.685000002       8.95659253E-02
  0.695999980       7.76270181E-02
  0.707000017       6.43108264E-02
  0.717999995       4.97554615E-02
  0.728999972       3.41366380E-02
  0.740000010       1.76665783E-02
  0.750999987       5.91152522E-04
  0.762000024      -1.68145429E-02
  0.773000002      -3.42514887E-02
  0.783999979      -5.14038131E-02
  0.795000017      -6.79478049E-02
  0.805999994      -8.35615918E-02
  0.816999972      -9.79355574E-02
  0.828000009     -0.110782407
  0.838999987     -0.121846132
  0.850000024     -0.130910859
  0.861000001     -0.137808830
  0.871999979     -0.142425969
  0.883000016     -0.144705847
  0.893999994     -0.144651920
  0.904999971     -0.142326578
  0.916000009     -0.137847841
  0.926999986     -0.131384984
  0.938000023     -0.123152748
  0.949000001     -0.113403670
  0.959999979     -0.102418460
  0.971000016      -9.04946551E-02
  0.981999993      -7.79367834E-02
  0.992999971      -6.50483668E-02
   1.00399995      -5.21223694E-02
   1.01499999      -3.94318104E-02
   1.02600002      -2.72235852E-02
   1.03699994      -1.57126393E-02
   1.04799998      -5.07647591E-03
   1.05900002       4.54593310E-03
   1.07000005       1.30537292E-02
   1.08099997       2.03852616E-02
   1.09200001       2.65162922E-02
   1.10300004       3.14553492E-02
   1.11399996       3.52406725E-02
   1.12500000       3.79361510E-02
   1.13600004       3.96248139E-02
   1.14699996       4.04046401E-02
   1.15799999       4.03853431E-02
   1.16900003       3.96819226E-02
   1.17999995       3.84093523E-02
   1.19099998       3.66805382E-02
   1.20200002       3.46028842E-02
   1.21300006       3.22749428E-02
   1.22399998       2.97865458E-02
   1.23500001       2.72181202E-02
   1.24600005       2.46377308E-02
   1.25699997       2.21008807E-02
   1.26800001       1.96525175E-02
   1.27900004       1.73273589E-02
   1.28999996       1.51503310E-02
   1.30100000       1.31383659E-02
   1.31200004       1.13011515E-02
   1.32299995       9.64173768E-03
   1.33399999       8.15867726E-03
   1.34500003       6.84711942E-03
   1.35599995       5.69838053E-03
   1.36699998       4.70121764E-03
   1.37800002       3.84380808E-03
   1.38900006       3.11362860E-03
