 -0.800000012       0.00000000
 -0.788999975       0.00000000
 -0.777999997       4.68572097E-20
 -0.767000020      -4.51838104E-20
 -0.755999982      -8.55642705E-13
 -0.745000005      -8.52371721E-13
 -0.734000027       3.35026299E-12
 -0.722999990      -2.74331547E-11
 -0.712000012       9.43889550E-11
 -0.700999975      -1.15527261E-10
 -0.689999998       1.03723877E-10
 -0.679000020      -1.26548425E-10
 -0.667999983      -2.13855905E-10
 -0.657000005       9.00924335E-10
 -0.646000028       6.46585341E-10
 -0.634999990      -4.11650047E-09
 -0.624000013      -5.40574079E-11
 -0.612999976       1.12364997E-08
 -0.601999998      -7.03394099E-09
 -0.591000021      -1.48221719E-08
 -0.579999983       1.72271442E-08
 -0.569000006       1.09518856E-08
 -0.558000028      -2.75439707E-08
 -0.546999991       8.83939055E-09
 -0.536000013       2.96338865E-08
 -0.524999976      -4.01475369E-08
 -0.513999999      -1.68706169E-08
 -0.503000021       4.80223008E-08
 -0.492000014      -2.03402939E-09
 -0.481000006      -9.82947679E-09
 -0.469999999       2.91858049E-09
 -0.458999991      -1.58950098E-08
 -0.448000014       1.03923504E-07
 -0.437000006      -1.89568013E-07
 -0.425999999      -3.85014630E-07
 -0.414999992       7.34068635E-07
 -0.404000014       7.55844155E-07
 -0.393000007      -1.29964531E-06
 -0.381999999      -7.78220169E-07
 -0.370999992       1.02121646E-06
 -0.360000014       1.94467631E-07
 -0.349000007       1.04567584E-06
 -0.338000000       1.28820943E-07
 -0.326999992      -4.83740268E-06
 -0.316000015       1.69592499E-06
 -0.305000007       8.06716253E-06
 -0.294000000      -7.12024485E-06
 -0.282999992      -6.12368331E-06
 -0.272000015       1.45046788E-05
 -0.261000007      -4.60824504E-06
 -0.250000000      -1.74199431E-05
 -0.238999993       2.10942108E-05
 -0.228000000       9.85336101E-06
 -0.216999993      -3.13607379E-05
 -0.206000000       3.94380459E-06
 -0.194999993       1.96360797E-05
 -0.184000000      -8.88344402E-06
 -0.172999993       1.47662768E-05
 -0.162000000      -1.82875476E-06
 -0.150999993      -5.52927668E-05
 -0.140000001       2.96079415E-05
 -0.128999993       6.31257426E-05
 -0.118000001      -6.39734135E-05
 -0.107000001      -1.88395807E-05
  -9.60000008E-02   1.05150946E-04
  -8.50000009E-02  -7.85563461E-05
  -7.40000010E-02  -1.09904700E-04
  -6.30000010E-02   1.58077339E-04
  -5.20000011E-02   7.07073559E-05
  -4.10000011E-02  -1.67643215E-04
  -2.99999993E-02   2.87693783E-05
  -1.89999994E-02   5.16616310E-05
  -8.00000038E-03  -1.01361533E-04
   3.00000003E-03   1.03051520E-04
   1.40000004E-02   7.78241229E-05
   2.50000004E-02  -1.98073525E-04
   3.59999985E-02   6.25088287E-05
   4.69999984E-02   1.09870525E-04
   5.79999983E-02  -1.47165483E-04
   6.89999983E-02   2.38902412E-05
   7.99999982E-02   1.82753487E-04
   9.09999982E-02  -1.45929065E-04
  0.101999998      -5.75286285E-05
  0.112999998       2.67792311E-05
  0.123999998      -1.21587946E-05
  0.135000005       9.89925029E-05
  0.145999998       2.50561516E-05
  0.157000005      -5.82531793E-05
  0.167999998       3.64756088E-05
  0.179000005       6.00312305E-05
  0.189999998      -2.11955747E-04
  0.201000005      -1.99127360E-04
  0.211999997       1.64358164E-04
  0.223000005       4.11727902E-04
  0.233999997      -1.33108086E-04
  0.245000005      -1.96895417E-04
  0.256000012       2.97300023E-04
  0.266999990      -2.81328335E-04
  0.277999997      -2.43634669E-04
  0.289000005       1.67686914E-04
  0.300000012       2.05752935E-04
  0.310999990      -1.65732214E-04
  0.321999997       7.93169820E-05
  0.333000004       2.95413658E-04
  0.344000012      -6.77498640E-04
  0.354999989       4.19284916E-04
  0.365999997       2.61758687E-04
  0.377000004      -8.03773000E-04
  0.388000011       3.66836117E-04
  0.398999989       9.97342402E-04
  0.409999996      -8.58184299E-04
  0.421000004      -8.97752179E-04
  0.432000011       1.08622247E-03
  0.442999989       4.04792896E-04
  0.453999996      -1.20094523E-03
  0.465000004       5.91109798E-04
  0.476000011       9.98018542E-04
  0.486999989      -1.14016060E-03
  0.497999996      -5.11989347E-04
  0.509000003       8.35588144E-04
  0.519999981      -7.12288747E-05
  0.531000018      -1.01441529E-03
  0.541999996       9.64644831E-04
  0.552999973       1.06276956E-03
  0.564000010      -9.45111213E-04
  0.574999988      -1.31438882E-03
  0.586000025       8.46107083E-04
  0.597000003       1.04782684E-03
  0.607999980      -5.38674882E-04
  0.619000018      -2.75256665E-04
  0.629999995       1.30742032E-04
  0.640999973       3.43814929E-04
  0.652000010      -4.22712823E-04
  0.662999988      -1.22351397E-03
  0.674000025       1.96707901E-03
  0.685000002       6.58505713E-04
  0.695999980      -2.32061720E-03
  0.707000017      -4.09843487E-04
  0.717999995       1.91053061E-03
  0.728999972      -5.58925240E-05
  0.740000010      -8.00159585E-04
  0.750999987       3.66863038E-04
  0.762000024       6.18648164E-06
  0.773000002      -1.46512379E-04
  0.783999979      -3.12010307E-05
  0.795000017      -2.23209994E-04
  0.805999994       5.70990902E-04
  0.816999972       8.01112270E-04
  0.828000009      -1.69722328E-03
  0.838999987      -8.60339496E-05
  0.850000024       1.82777061E-03
  0.861000001      -1.39581366E-03
  0.871999979      -7.92420469E-04
  0.883000016       2.07540998E-03
  0.893999994      -6.10129908E-04
  0.904999971      -2.37848796E-03
  0.916000009       1.68038893E-03
  0.926999986       2.24812282E-03
  0.938000023      -1.47720519E-03
  0.949000001      -5.96154423E-04
  0.959999979       1.07761240E-03
  0.971000016      -1.20105001E-03
  0.981999993      -2.20779795E-03
  0.992999971       1.06927764E-03
   1.00399995       2.77840137E-03
   1.01499999      -1.36733448E-04
   1.02600002      -1.66192208E-03
   1.03699994       1.00763922E-03
   1.04799998       1.18667330E-03
   1.05900002      -2.54564267E-03
   1.07000005      -1.21498294E-03
   1.08099997       2.98150931E-03
   1.09200001      -5.01095856E-05
   1.10300004      -2.99940049E-03
   1.11399996       2.16609007E-03
   1.12500000       2.72530084E-03
   1.13600004      -3.73128988E-03
   1.14699996      -1.61660276E-03
   1.15799999       4.18212032E-03
   1.16900003      -2.98709434E-04
   1.17999995      -4.03553108E-03
   1.19099998       1.87957822E-03
   1.20200002       3.48186260E-03
   1.21300006      -2.30006524E-03
   1.22399998      -2.26774672E-03
   1.23500001       2.45186826E-03
   1.24600005       1.34587009E-03
   1.25699997      -2.75423378E-03
   1.26800001      -1.45284727E-03
   1.27900004       2.45602825E-03
   1.28999996       1.23197061E-03
   1.30100000      -2.11407314E-03
   1.31200004       5.71731944E-05
   1.32299995       2.63554533E-03
   1.33399999      -1.11102790E-03
   1.34500003      -2.85852375E-03
   1.35599995       1.44207396E-03
   1.36699998       1.66440592E-03
   1.37800002      -1.74573599E-03
   1.38900006       1.05219180E-04
