 -0.800000012       0.00000000
 -0.788999975       0.00000000
 -0.777999997       2.53316967E-09
 -0.767000020      -2.68293157E-08
 -0.755999982      -1.00033608E-08
 -0.745000005       3.37728608E-07
 -0.734000027       8.25954416E-08
 -0.722999990      -1.34978291E-06
 -0.712000012      -6.23401206E-08
 -0.700999975       3.30467446E-06
 -0.689999998      -6.06801393E-07
 -0.679000020      -5.72501267E-06
 -0.667999983       3.02650551E-06
 -0.657000005       8.71196971E-06
 -0.646000028      -5.50951108E-06
 -0.634999990      -1.13536817E-05
 -0.624000013       1.82921235E-06
 -0.612999976       7.39990264E-06
 -0.601999998       1.27846433E-05
 -0.591000021       1.59933934E-05
 -0.579999983      -2.41265243E-05
 -0.569000006      -5.24861571E-05
 -0.558000028       1.76270896E-05
 -0.546999991       7.83982541E-05
 -0.536000013       2.34714958E-06
 -0.524999976      -8.26582109E-05
 -0.513999999      -3.02647204E-05
 -0.503000021       7.31576438E-05
 -0.492000014       9.90090484E-05
 -0.481000006       1.88265039E-05
 -0.469999999      -1.23460850E-04
 -0.458999991      -1.69298088E-04
 -0.448000014      -1.56126243E-05
 -0.437000006       1.35229595E-04
 -0.425999999       4.26660190E-05
 -0.414999992      -2.00113835E-04
 -0.404000014      -3.56267003E-04
 -0.393000007      -3.54840799E-04
 -0.381999999      -2.89306947E-04
 -0.370999992      -3.44801490E-04
 -0.360000014      -6.45823311E-04
 -0.349000007      -1.05989131E-03
 -0.338000000      -1.37164665E-03
 -0.326999992      -1.61504245E-03
 -0.316000015      -2.01472244E-03
 -0.305000007      -2.76887603E-03
 -0.294000000      -3.97336297E-03
 -0.282999992      -5.50237903E-03
 -0.272000015      -7.08312681E-03
 -0.261000007      -8.78297258E-03
 -0.250000000      -1.11292927E-02
 -0.238999993      -1.44934189E-02
 -0.228000000      -1.87615883E-02
 -0.216999993      -2.37737969E-02
 -0.206000000      -2.96693165E-02
 -0.194999993      -3.67786177E-02
 -0.184000000      -4.55047935E-02
 -0.172999993      -5.61776496E-02
 -0.162000000      -6.88517466E-02
 -0.150999993      -8.34976584E-02
 -0.140000001     -0.100383811
 -0.128999993     -0.119972400
 -0.118000001     -0.142540261
 -0.107000001     -0.168099642
  -9.60000008E-02 -0.196558908
  -8.50000009E-02 -0.227873817
  -7.40000010E-02 -0.262042105
  -6.30000010E-02 -0.298901558
  -5.20000011E-02 -0.338038385
  -4.10000011E-02 -0.378881782
  -2.99999993E-02 -0.420659244
  -1.89999994E-02 -0.462381423
  -8.00000038E-03 -0.502988756
   3.00000003E-03 -0.541183650
   1.40000004E-02 -0.575238526
   2.50000004E-02 -0.603364468
   3.59999985E-02 -0.623854518
   4.69999984E-02 -0.634677529
   5.79999983E-02 -0.633600473
   6.89999983E-02 -0.618578613
   7.99999982E-02 -0.587520957
   9.09999982E-02 -0.538350224
  0.101999998     -0.469566971
  0.112999998     -0.380001813
  0.123999998     -0.268451244
  0.135000005     -0.134357199
  0.145999998       2.19163597E-02
  0.157000005      0.199645504
  0.167999998      0.397494704
  0.179000005      0.613011658
  0.189999998      0.843120813
  0.201000005       1.08429217
  0.211999997       1.33198607
  0.223000005       1.58090520
  0.233999997       1.82552409
  0.245000005       2.05976772
  0.256000012       2.27696633
  0.266999990       2.47048283
  0.277999997       2.63382101
  0.289000005       2.76051283
  0.300000012       2.84456348
  0.310999990       2.88073087
  0.321999997       2.86441541
  0.333000004       2.79187179
  0.344000012       2.66056538
  0.354999989       2.46927953
  0.365999997       2.21825242
  0.377000004       1.90933609
  0.388000011       1.54595137
  0.398999989       1.13299370
  0.409999996      0.676833451
  0.421000004      0.185336187
  0.432000011     -0.332187355
  0.442999989     -0.865186691
  0.453999996      -1.40216947
  0.465000004      -1.93095481
  0.476000011      -2.43901348
  0.486999989      -2.91391897
  0.497999996      -3.34362507
  0.509000003      -3.71668983
  0.519999981      -4.02278519
  0.531000018      -4.25319910
  0.541999996      -4.40101910
  0.552999973      -4.46135712
  0.564000010      -4.43176317
  0.574999988      -4.31239796
  0.586000025      -4.10588217
  0.597000003      -3.81725502
  0.607999980      -3.45401835
  0.619000018      -3.02586627
  0.629999995      -2.54424095
  0.640999973      -2.02205348
  0.652000010      -1.47334969
  0.662999988     -0.912676930
  0.674000025     -0.354509205
  0.685000002      0.187101945
  0.695999980      0.699012041
  0.707000017       1.16952240
  0.717999995       1.58865368
  0.728999972       1.94837439
  0.740000010       2.24290061
  0.750999987       2.46877599
  0.762000024       2.62476635
  0.773000002       2.71183372
  0.783999979       2.73301840
  0.795000017       2.69312835
  0.805999994       2.59846377
  0.816999972       2.45652318
  0.828000009       2.27553320
  0.838999987       2.06404233
  0.850000024       1.83071303
  0.861000001       1.58405375
  0.871999979       1.33206856
  0.883000016       1.08202910
  0.893999994      0.840319395
  0.904999971      0.612247288
  0.916000009      0.401952446
  0.926999986      0.212506488
  0.938000023       4.60136123E-02
  0.949000001      -9.64284688E-02
  0.959999979     -0.214701563
  0.971000016     -0.309434772
  0.981999993     -0.381818473
  0.992999971     -0.433580965
   1.00399995     -0.466839790
   1.01499999     -0.483848482
   1.02600002     -0.486990064
   1.03699994     -0.478809327
   1.04799998     -0.461716413
   1.05900002     -0.437761754
   1.07000005     -0.408813298
   1.08099997     -0.376654267
   1.09200001     -0.342810601
   1.10300004     -0.308535308
   1.11399996     -0.274885476
   1.12500000     -0.242606416
   1.13600004     -0.212131977
   1.14699996     -0.183811113
   1.15799999     -0.157942414
   1.16900003     -0.134656489
   1.17999995     -0.113940440
   1.19099998      -9.56677347E-02
   1.20200002      -7.96202496E-02
   1.21300006      -6.56440631E-02
   1.22399998      -5.36658913E-02
   1.23500001      -4.35220525E-02
   1.24600005      -3.49786207E-02
   1.25699997      -2.78251115E-02
   1.26800001      -2.18197256E-02
   1.27900004      -1.67741049E-02
   1.28999996      -1.26692401E-02
   1.30100000      -9.44878068E-03
   1.31200004      -6.90137409E-03
   1.32299995      -4.86681424E-03
   1.33399999      -3.26734502E-03
   1.34500003      -2.01690360E-03
   1.35599995      -1.11950585E-03
   1.36699998      -5.94779965E-04
   1.37800002      -2.90600146E-04
   1.38900006      -8.00673297E-05
