 -0.800000012       0.00000000
 -0.788999975       0.00000000
 -0.777999997      -1.47472710E-08
 -0.767000020       6.94914917E-08
 -0.755999982       6.12896542E-08
 -0.745000005      -5.78375136E-07
 -0.734000027       2.25852528E-08
 -0.722999990       2.35762604E-06
 -0.712000012      -7.74820990E-07
 -0.700999975      -5.84531608E-06
 -0.689999998       3.80676420E-06
 -0.679000020       1.01818450E-05
 -0.667999983      -1.24689286E-05
 -0.657000005      -1.48579556E-05
 -0.646000028       2.90590688E-05
 -0.634999990       2.27428009E-05
 -0.624000013      -4.53930588E-05
 -0.612999976      -3.21683729E-05
 -0.601999998       4.50091757E-05
 -0.591000021       2.70331257E-05
 -0.579999983      -2.82721612E-05
 -0.569000006       3.84004170E-06
 -0.558000028       2.28802710E-05
 -0.546999991      -2.75508119E-05
 -0.536000013      -2.94038109E-05
 -0.524999976       1.24386752E-05
 -0.513999999       1.88746053E-05
 -0.503000021       1.18760772E-05
 -0.492000014      -2.01221974E-05
 -0.481000006      -3.70221424E-05
 -0.469999999       8.52537705E-05
 -0.458999991       1.51044660E-04
 -0.448000014      -9.21215251E-05
 -0.437000006      -2.93024699E-04
 -0.425999999      -1.10459085E-04
 -0.414999992       8.27881449E-05
 -0.404000014       2.65521758E-05
 -0.393000007      -1.26316190E-05
 -0.381999999      -5.68608048E-05
 -0.370999992      -2.70056596E-04
 -0.360000014      -3.34429234E-04
 -0.349000007      -1.56212758E-04
 -0.338000000      -2.04392287E-04
 -0.326999992      -5.62211906E-04
 -0.316000015      -8.80424341E-04
 -0.305000007      -1.08578801E-03
 -0.294000000      -1.19342841E-03
 -0.282999992      -1.24593265E-03
 -0.272000015      -1.66191300E-03
 -0.261000007      -2.57086637E-03
 -0.250000000      -3.41503229E-03
 -0.238999993      -4.03253036E-03
 -0.228000000      -4.90458449E-03
 -0.216999993      -6.12585619E-03
 -0.206000000      -7.54104462E-03
 -0.194999993      -9.40404274E-03
 -0.184000000      -1.17653934E-02
 -0.172999993      -1.41986962E-02
 -0.162000000      -1.67046022E-02
 -0.150999993      -1.97492931E-02
 -0.140000001      -2.34105196E-02
 -0.128999993      -2.74265427E-02
 -0.118000001      -3.17253992E-02
 -0.107000001      -3.63434553E-02
  -9.60000008E-02  -4.12424579E-02
  -8.50000009E-02  -4.63762023E-02
  -7.40000010E-02  -5.16727343E-02
  -6.30000010E-02  -5.70404939E-02
  -5.20000011E-02  -6.24237172E-02
  -4.10000011E-02  -6.76566586E-02
  -2.99999993E-02  -7.24084079E-02
  -1.89999994E-02  -7.64759555E-02
  -8.00000038E-03  -7.99287185E-02
   3.00000003E-03  -8.28201100E-02
   1.40000004E-02  -8.50179046E-02
   2.50000004E-02  -8.64745378E-02
   3.59999985E-02  -8.73810649E-02
   4.69999984E-02  -8.79230052E-02
   5.79999983E-02  -8.82968083E-02
   6.89999983E-02  -8.91410336E-02
   7.99999982E-02  -9.14973021E-02
   9.09999982E-02  -9.62745473E-02
  0.101999998     -0.104260482
  0.112999998     -0.116594359
  0.123999998     -0.134729519
  0.135000005     -0.160108313
  0.145999998     -0.194239676
  0.157000005     -0.238748387
  0.167999998     -0.294961840
  0.179000005     -0.363672495
  0.189999998     -0.445421726
  0.201000005     -0.540563822
  0.211999997     -0.648755014
  0.223000005     -0.768640339
  0.233999997     -0.898077190
  0.245000005      -1.03413534
  0.256000012      -1.17276084
  0.266999990      -1.30884898
  0.277999997      -1.43648696
  0.289000005      -1.54877853
  0.300000012      -1.63795018
  0.310999990      -1.69603205
  0.321999997      -1.71509552
  0.333000004      -1.68709755
  0.344000012      -1.60431182
  0.354999989      -1.46003461
  0.365999997      -1.24907374
  0.377000004     -0.968308091
  0.388000011     -0.616964400
  0.398999989     -0.196481556
  0.409999996      0.289085835
  0.421000004      0.832413077
  0.432000011       1.42313707
  0.442999989       2.04818678
  0.453999996       2.69155312
  0.465000004       3.33483219
  0.476000011       3.95842767
  0.486999989       4.54183674
  0.497999996       5.06382465
  0.509000003       5.50378227
  0.519999981       5.84295750
  0.531000018       6.06474876
  0.541999996       6.15538836
  0.552999973       6.10519743
  0.564000010       5.90916061
  0.574999988       5.56687069
  0.586000025       5.08274603
  0.597000003       4.46637440
  0.607999980       3.73224449
  0.619000018       2.89892340
  0.629999995       1.98840594
  0.640999973       1.02567613
  0.652000010       3.77378613E-02
  0.662999988     -0.947755814
  0.674000025      -1.90347576
  0.685000002      -2.80329585
  0.695999980      -3.62350011
  0.707000017      -4.34365177
  0.717999995      -4.94692802
  0.728999972      -5.42071819
  0.740000010      -5.75731421
  0.750999987      -5.95391846
  0.762000024      -6.01226950
  0.773000002      -5.93836832
  0.783999979      -5.74213982
  0.795000017      -5.43684292
  0.805999994      -5.03828001
  0.816999972      -4.56397057
  0.828000009      -4.03250074
  0.838999987      -3.46279669
  0.850000024      -2.87317371
  0.861000001      -2.28074980
  0.871999979      -1.70122290
  0.883000016      -1.14829957
  0.893999994     -0.633155465
  0.904999971     -0.164583847
  0.916000009      0.250877321
  0.926999986      0.609240234
  0.938000023      0.908965170
  0.949000001       1.15035439
  0.959999979       1.33524203
  0.971000016       1.46698546
  0.981999993       1.55019665
  0.992999971       1.59020495
   1.00399995       1.59261811
   1.01499999       1.56324327
   1.02600002       1.50808573
   1.03699994       1.43292117
   1.04799998       1.34287179
   1.05900002       1.24260664
   1.07000005       1.13650036
   1.08099997       1.02823460
   1.09200001      0.920700848
   1.10300004      0.816405058
   1.11399996      0.717408657
   1.12500000      0.624972343
   1.13600004      0.539816558
   1.14699996      0.462572396
   1.15799999      0.393614829
   1.16900003      0.332758725
   1.17999995      0.279490829
   1.19099998      0.233346775
   1.20200002      0.193849757
   1.21300006      0.160294175
   1.22399998      0.131889373
   1.23500001      0.107986771
   1.24600005       8.79584327E-02
   1.25699997       7.10944161E-02
   1.26800001       5.68164140E-02
   1.27900004       4.47553582E-02
   1.28999996       3.45857553E-02
   1.30100000       2.60126293E-02
   1.31200004       1.88138001E-02
   1.32299995       1.27783502E-02
   1.33399999       7.76900025E-03
   1.34500003       3.75208608E-03
   1.35599995       6.30823313E-04
   1.36699998      -1.70657702E-03
   1.37800002      -3.22912424E-03
   1.38900006      -3.97479720E-03
