 -0.800000012       0.00000000
 -0.788999975       0.00000000
 -0.777999997       0.00000000
 -0.767000020       0.00000000
 -0.755999982      -8.47755546E-11
 -0.745000005      -2.04984718E-09
 -0.734000027       9.73628023E-09
 -0.722999990      -8.74703154E-09
 -0.712000012      -4.69036543E-08
 -0.700999975       1.06021396E-07
 -0.689999998       7.46589492E-08
 -0.679000020      -4.02235685E-07
 -0.667999983       7.83425804E-08
 -0.657000005       8.66441042E-07
 -0.646000028      -6.53908728E-07
 -0.634999990      -1.07827054E-06
 -0.624000013       1.62551953E-06
 -0.612999976       2.42862797E-07
 -0.601999998      -2.29269699E-06
 -0.591000021       2.13341536E-06
 -0.579999983       1.21897324E-06
 -0.569000006      -5.11218013E-06
 -0.558000028       3.03429692E-06
 -0.546999991       5.67564075E-06
 -0.536000013      -1.04746114E-05
 -0.524999976      -9.29424182E-09
 -0.513999999       1.77417733E-05
 -0.503000021      -1.37568613E-05
 -0.492000014      -1.73759527E-05
 -0.481000006       3.33080243E-05
 -0.469999999       6.64675838E-07
 -0.458999991      -5.23471099E-05
 -0.448000014       3.43569009E-05
 -0.437000006       6.05287933E-05
 -0.425999999      -7.73352149E-05
 -0.414999992      -4.48224637E-05
 -0.404000014       1.10026565E-04
 -0.393000007      -1.95868188E-06
 -0.381999999      -1.16032315E-04
 -0.370999992       6.83518811E-05
 -0.360000014       8.22138099E-05
 -0.349000007      -1.31923516E-04
 -0.338000000      -1.13243705E-05
 -0.326999992       1.69037332E-04
 -0.316000015      -6.07316724E-05
 -0.305000007      -1.21128505E-04
 -0.294000000       1.79841983E-04
 -0.282999992       1.16366326E-04
 -0.272000015      -1.29094697E-04
 -0.261000007       7.98293913E-05
 -0.250000000       2.46321928E-04
 -0.238999993       6.35073011E-05
 -0.228000000       1.62497774E-04
 -0.216999993       4.11052577E-04
 -0.206000000       3.06628150E-04
 -0.194999993       3.77753313E-04
 -0.184000000       8.09649879E-04
 -0.172999993       9.37452598E-04
 -0.162000000       1.02388463E-03
 -0.150999993       1.61239458E-03
 -0.140000001       2.12016283E-03
 -0.128999993       2.45518750E-03
 -0.118000001       3.40126781E-03
 -0.107000001       4.59156604E-03
  -9.60000008E-02   5.42216795E-03
  -8.50000009E-02   6.78132614E-03
  -7.40000010E-02   9.04296804E-03
  -6.30000010E-02   1.12178689E-02
  -5.20000011E-02   1.34673957E-02
  -4.10000011E-02   1.68237742E-02
  -2.99999993E-02   2.08816063E-02
  -1.89999994E-02   2.50478499E-02
  -8.00000038E-03   3.00979204E-02
   3.00000003E-03   3.64282392E-02
   1.40000004E-02   4.34183739E-02
   2.50000004E-02   5.10768816E-02
   3.59999985E-02   5.99746369E-02
   4.69999984E-02   7.01292828E-02
   5.79999983E-02   8.12571570E-02
   6.89999983E-02   9.31982920E-02
   7.99999982E-02  0.105957307
   9.09999982E-02  0.119708419
  0.101999998      0.134148791
  0.112999998      0.148518071
  0.123999998      0.162773207
  0.135000005      0.177016333
  0.145999998      0.190088734
  0.157000005      0.200924590
  0.167999998      0.209710479
  0.179000005      0.215831354
  0.189999998      0.217330381
  0.201000005      0.213294864
  0.211999997      0.203656808
  0.223000005      0.186941862
  0.233999997      0.161089018
  0.245000005      0.125340253
  0.256000012       7.92775154E-02
  0.266999990       2.14808118E-02
  0.277999997      -4.96180654E-02
  0.289000005     -0.134651512
  0.300000012     -0.233694121
  0.310999990     -0.347140044
  0.321999997     -0.475554049
  0.333000004     -0.618530929
  0.344000012     -0.774513185
  0.354999989     -0.942047060
  0.365999997      -1.11987209
  0.377000004      -1.30533540
  0.388000011      -1.49430645
  0.398999989      -1.68282473
  0.409999996      -1.86691594
  0.421000004      -2.04081416
  0.432000011      -2.19756413
  0.442999989      -2.33110905
  0.453999996      -2.43535924
  0.465000004      -2.50216913
  0.476000011      -2.52326059
  0.486999989      -2.49272728
  0.497999996      -2.40490055
  0.509000003      -2.25261927
  0.519999981      -2.03056765
  0.531000018      -1.73718154
  0.541999996      -1.37169850
  0.552999973     -0.933578372
  0.564000010     -0.425823957
  0.574999988      0.144641846
  0.586000025      0.769282401
  0.597000003       1.43774164
  0.607999980       2.13639712
  0.619000018       2.84878564
  0.629999995       3.55674386
  0.640999973       4.24107742
  0.652000010       4.88189316
  0.662999988       5.45856810
  0.674000025       5.95072556
  0.685000002       6.34012222
  0.695999980       6.61078835
  0.707000017       6.74863386
  0.717999995       6.74343777
  0.728999972       6.59029102
  0.740000010       6.28800583
  0.750999987       5.83895874
  0.762000024       5.25166178
  0.773000002       4.54033470
  0.783999979       3.72175407
  0.795000017       2.81554246
  0.805999994       1.84612918
  0.816999972      0.840658009
  0.828000009     -0.174214125
  0.838999987      -1.17205644
  0.850000024      -2.12612462
  0.861000001      -3.01136422
  0.871999979      -3.80612588
  0.883000016      -4.49230099
  0.893999994      -5.05564117
  0.904999971      -5.48622274
  0.916000009      -5.77845764
  0.926999986      -5.93150473
  0.938000023      -5.94951773
  0.949000001      -5.84053183
  0.959999979      -5.61535025
  0.971000016      -5.28772545
  0.981999993      -4.87427282
  0.992999971      -4.39299011
   1.00399995      -3.86185312
   1.01499999      -3.29870653
   1.02600002      -2.72136521
   1.03699994      -2.14651990
   1.04799998      -1.58846283
   1.05900002      -1.05933952
   1.07000005     -0.569673657
   1.08099997     -0.127459630
   1.09200001      0.262332380
   1.10300004      0.596543372
   1.11399996      0.873451889
   1.12500000       1.09389675
   1.13600004       1.26096058
   1.14699996       1.37820840
   1.15799999       1.44951665
   1.16900003       1.48025608
   1.17999995       1.47691107
   1.19099998       1.44526136
   1.20200002       1.39001191
   1.21300006       1.31635344
   1.22399998       1.23034465
   1.23500001       1.13683879
   1.24600005       1.03851295
   1.25699997      0.938062191
   1.26800001      0.839446485
   1.27900004      0.745447397
   1.28999996      0.656169891
   1.30100000      0.571777880
   1.31200004      0.494359583
   1.32299995      0.425136387
   1.33399999      0.362630814
   1.34500003      0.305844158
   1.35599995      0.256101459
   1.36699998      0.213632077
   1.37800002      0.176145151
   1.38900006      0.142647490
