 -0.800000012       0.00000000
 -0.788999975       0.00000000
 -0.777999997       0.00000000
 -0.767000020       0.00000000
 -0.755999982      -8.47755754E-11
 -0.745000005      -2.04984718E-09
 -0.734000027       9.73628023E-09
 -0.722999990      -8.74703243E-09
 -0.712000012      -4.69036543E-08
 -0.700999975       1.06021396E-07
 -0.689999998       7.46589777E-08
 -0.679000020      -4.02235656E-07
 -0.667999983       7.83424312E-08
 -0.657000005       8.66441042E-07
 -0.646000028      -6.53908614E-07
 -0.634999990      -1.07827077E-06
 -0.624000013       1.62551942E-06
 -0.612999976       2.42863081E-07
 -0.601999998      -2.29269676E-06
 -0.591000021       2.13341491E-06
 -0.579999983       1.21897233E-06
 -0.569000006      -5.11218013E-06
 -0.558000028       3.03429624E-06
 -0.546999991       5.67564211E-06
 -0.536000013      -1.04746086E-05
 -0.524999976      -9.29365296E-09
 -0.513999999       1.77417696E-05
 -0.503000021      -1.37568641E-05
 -0.492000014      -1.73759581E-05
 -0.481000006       3.33080243E-05
 -0.469999999       6.64699030E-07
 -0.458999991      -5.23470990E-05
 -0.448000014       3.43568499E-05
 -0.437000006       6.05287933E-05
 -0.425999999      -7.73351494E-05
 -0.414999992      -4.48224710E-05
 -0.404000014       1.10026500E-04
 -0.393000007      -1.95877146E-06
 -0.381999999      -1.16032301E-04
 -0.370999992       6.83522449E-05
 -0.360000014       8.22138172E-05
 -0.349000007      -1.31924302E-04
 -0.338000000      -1.13243468E-05
 -0.326999992       1.69038438E-04
 -0.316000015      -6.07317816E-05
 -0.305000007      -1.21129196E-04
 -0.294000000       1.79842376E-04
 -0.282999992       1.16365445E-04
 -0.272000015      -1.29095526E-04
 -0.261000007       7.98327746E-05
 -0.250000000       2.46323034E-04
 -0.238999993       6.35018296E-05
 -0.228000000       1.62497061E-04
 -0.216999993       4.11058281E-04
 -0.206000000       3.06627830E-04
 -0.194999993       3.77749733E-04
 -0.184000000       8.09650170E-04
 -0.172999993       9.37453064E-04
 -0.162000000       1.02389103E-03
 -0.150999993       1.61239598E-03
 -0.140000001       2.12013628E-03
 -0.128999993       2.45518610E-03
 -0.118000001       3.40132392E-03
 -0.107000001       4.59156279E-03
  -9.60000008E-02   5.42209344E-03
  -8.50000009E-02   6.78134942E-03
  -7.40000010E-02   9.04303789E-03
  -6.30000010E-02   1.12178139E-02
  -5.20000011E-02   1.34673649E-02
  -4.10000011E-02   1.68238617E-02
  -2.99999993E-02   2.08815578E-02
  -1.89999994E-02   2.50477325E-02
  -8.00000038E-03   3.00980862E-02
   3.00000003E-03   3.64283882E-02
   1.40000004E-02   4.34181392E-02
   2.50000004E-02   5.10767512E-02
   3.59999985E-02   5.99748231E-02
   4.69999984E-02   7.01292977E-02
   5.79999983E-02   8.12570602E-02
   6.89999983E-02   9.31983888E-02
   7.99999982E-02  0.105957367
   9.09999982E-02  0.119708337
  0.101999998      0.134148985
  0.112999998      0.148518205
  0.123999998      0.162772655
  0.135000005      0.177015856
  0.145999998      0.190089419
  0.157000005      0.200925454
  0.167999998      0.209710360
  0.179000005      0.215831071
  0.189999998      0.217330605
  0.201000005      0.213294700
  0.211999997      0.203655988
  0.223000005      0.186941683
  0.233999997      0.161089361
  0.245000005      0.125340164
  0.256000012       7.92778060E-02
  0.266999990       2.14812569E-02
  0.277999997      -4.96182889E-02
  0.289000005     -0.134651795
  0.300000012     -0.233693525
  0.310999990     -0.347138822
  0.321999997     -0.475554943
  0.333000004     -0.618534148
  0.344000012     -0.774513900
  0.354999989     -0.942044020
  0.365999997      -1.11987090
  0.377000004      -1.30533719
  0.388000011      -1.49430549
  0.398999989      -1.68282211
  0.409999996      -1.86691725
  0.421000004      -2.04081678
  0.432000011      -2.19756365
  0.442999989      -2.33110809
  0.453999996      -2.43535876
  0.465000004      -2.50216699
  0.476000011      -2.52325964
  0.486999989      -2.49272823
  0.497999996      -2.40490246
  0.509000003      -2.25261736
  0.519999981      -2.03056145
  0.531000018      -1.73718143
  0.541999996      -1.37170625
  0.552999973     -0.933584213
  0.564000010     -0.425822824
  0.574999988      0.144646540
  0.586000025      0.769287467
  0.597000003       1.43774164
  0.607999980       2.13639617
  0.619000018       2.84879160
  0.629999995       3.55674505
  0.640999973       4.24107218
  0.652000010       4.88189077
  0.662999988       5.45856905
  0.674000025       5.95073175
  0.685000002       6.34012651
  0.695999980       6.61077929
  0.707000017       6.74862337
  0.717999995       6.74344873
  0.728999972       6.59030724
  0.740000010       6.28799486
  0.750999987       5.83894587
  0.762000024       5.25167656
  0.773000002       4.54034042
  0.783999979       3.72173381
  0.795000017       2.81553173
  0.805999994       1.84613848
  0.816999972      0.840669930
  0.828000009     -0.174217358
  0.838999987      -1.17207360
  0.850000024      -2.12612104
  0.861000001      -3.01133633
  0.871999979      -3.80612731
  0.883000016      -4.49233437
  0.893999994      -5.05564976
  0.904999971      -5.48620462
  0.916000009      -5.77846050
  0.926999986      -5.93151951
  0.938000023      -5.94951010
  0.949000001      -5.84051704
  0.959999979      -5.61535215
  0.971000016      -5.28773022
  0.981999993      -4.87426901
  0.992999971      -4.39298964
   1.00399995      -3.86185622
   1.01499999      -3.29870009
   1.02600002      -2.72136164
   1.03699994      -2.14653349
   1.04799998      -1.58846712
   1.05900002      -1.05931818
   1.07000005     -0.569666028
   1.08099997     -0.127489671
   1.09200001      0.262307853
   1.10300004      0.596561670
   1.11399996      0.873482764
   1.12500000       1.09389651
   1.13600004       1.26093972
   1.14699996       1.37820315
   1.15799999       1.44953203
   1.16900003       1.48026633
   1.17999995       1.47689855
   1.19099998       1.44524491
   1.20200002       1.39001811
   1.21300006       1.31636739
   1.22399998       1.23033690
   1.23500001       1.13682187
   1.24600005       1.03851485
   1.25699997      0.938076913
   1.26800001      0.839457929
   1.27900004      0.745454729
   1.28999996      0.656167150
   1.30100000      0.571765900
   1.31200004      0.494359761
   1.32299995      0.425147176
   1.33399999      0.362620056
   1.34500003      0.305816591
   1.35599995      0.256099582
   1.36699998      0.213656813
   1.37800002      0.176152334
   1.38900006      0.142628938
