 -0.959999979       0.00000000
 -0.925000012      -6.82536154E-07
 -0.889999986      -1.09766006E-06
 -0.855000019      -1.48425352E-06
 -0.819999993      -3.44620867E-06
 -0.785000026      -8.10772053E-06
 -0.750000000      -1.65169968E-05
 -0.714999974      -3.04309342E-05
 -0.680000007      -5.25205287E-05
 -0.644999981      -8.66500341E-05
 -0.610000014      -1.34277259E-04
 -0.574999988      -1.88487611E-04
 -0.540000021      -2.32549733E-04
 -0.504999995      -2.38693217E-04
 -0.469999999      -1.62877303E-04
 -0.435000002       5.16079963E-05
 -0.400000006       4.54419875E-04
 -0.365000010       1.06172217E-03
 -0.330000013       1.82299712E-03
 -0.294999987       2.57982337E-03
 -0.259999990       3.04654753E-03
 -0.224999994       2.84671364E-03
 -0.189999998       1.59904896E-03
 -0.155000001      -9.74255323E-04
 -0.119999997      -4.94410191E-03
  -8.50000009E-02  -1.01322280E-02
  -5.00000007E-02  -1.62084009E-02
  -1.49999997E-02  -2.29527559E-02
   1.99999996E-02  -3.06125768E-02
   5.49999997E-02  -4.02060561E-02
   9.00000036E-02  -5.35786562E-02
  0.125000000      -7.30212107E-02
  0.159999996     -0.100378118
  0.194999993     -0.135802656
  0.230000004     -0.176548436
  0.264999986     -0.216315523
  0.300000012     -0.245626554
  0.335000008     -0.253446162
  0.370000005     -0.229812607
  0.405000001     -0.168807417
  0.439999998      -7.09505230E-02
  0.474999994       5.58077320E-02
  0.509999990      0.196925133
  0.545000017      0.333779842
  0.579999983      0.447192460
  0.615000010      0.521063507
  0.649999976      0.545294583
  0.685000002      0.517423630
  0.720000029      0.442756653
  0.754999995      0.333092690
  0.790000021      0.204352349
  0.824999988       7.35908449E-02
  0.860000014      -4.39765565E-02
  0.894999981     -0.137287736
  0.930000007     -0.200623348
  0.964999974     -0.233542979
   1.00000000     -0.239802018
   1.03499997     -0.225750938
   1.07000005     -0.198747575
   1.10500002     -0.165893167
   1.13999999     -0.133121848
   1.17499995     -0.104552083
   1.21000004      -8.20840746E-02
   1.24500000      -6.53668270E-02
   1.27999997      -5.22988476E-02
   1.31500006      -4.00666222E-02
   1.35000002      -2.64197290E-02
   1.38499999      -1.06527070E-02
   1.41999996       6.16791239E-03
   1.45500004       2.18145661E-02
   1.49000001       3.39689739E-02
   1.52499998       4.11308929E-02
   1.55999994       4.28976566E-02
   1.59500003       3.96027565E-02
   1.63000000       3.17375436E-02
