 -0.800000012       0.00000000
 -0.788999975       0.00000000
 -0.777999997       0.00000000
 -0.767000020       0.00000000
 -0.755999982       1.19482823E-14
 -0.745000005       2.97155963E-14
 -0.734000027       6.66404215E-13
 -0.722999990      -2.75070418E-12
 -0.712000012       6.44784399E-12
 -0.700999975      -1.13554183E-11
 -0.689999998      -7.56092931E-12
 -0.679000020       1.10035710E-10
 -0.667999983      -1.64014496E-10
 -0.657000005      -2.87914220E-10
 -0.646000028       9.53381818E-10
 -0.634999990       1.18146659E-10
 -0.624000013      -2.86612822E-09
 -0.612999976       1.52795865E-09
 -0.601999998       5.65793901E-09
 -0.591000021      -5.93804605E-09
 -0.579999983      -7.14152870E-09
 -0.569000006       1.28283570E-08
 -0.558000028       2.61561861E-09
 -0.546999991      -1.86305869E-08
 -0.536000013       1.33447493E-08
 -0.524999976       1.77261672E-08
 -0.513999999      -3.99744629E-08
 -0.503000021      -6.27100016E-09
 -0.492000014       5.91592517E-08
 -0.481000006      -1.91716385E-08
 -0.469999999      -3.46285631E-08
 -0.458999991       7.15442994E-08
 -0.448000014      -5.26099200E-08
 -0.437000006      -1.59254341E-07
 -0.425999999       1.55799128E-07
 -0.414999992       2.18661768E-07
 -0.404000014      -2.10889510E-07
 -0.393000007      -1.11592712E-07
 -0.381999999       2.70278662E-07
 -0.370999992      -1.40297232E-07
 -0.360000014      -3.45781672E-07
 -0.349000007       3.26424413E-07
 -0.338000000       1.25039620E-07
 -0.326999992      -7.02901616E-07
 -0.316000015       9.45434024E-08
 -0.305000007       1.21313531E-06
 -0.294000000       7.03998126E-07
 -0.282999992       9.17225918E-07
 -0.272000015       2.78976222E-06
 -0.261000007       3.55493989E-06
 -0.250000000       4.05720539E-06
 -0.238999993       7.03240812E-06
 -0.228000000       1.03119719E-05
 -0.216999993       1.26318146E-05
 -0.206000000       1.76911144E-05
 -0.194999993       2.58143682E-05
 -0.184000000       3.42717140E-05
 -0.172999993       4.56469752E-05
 -0.162000000       6.30476789E-05
 -0.150999993       8.45288014E-05
 -0.140000001       1.11084351E-04
 -0.128999993       1.47791390E-04
 -0.118000001       1.95402390E-04
 -0.107000001       2.54107668E-04
  -9.60000008E-02   3.29794741E-04
  -8.50000009E-02   4.27101157E-04
  -7.40000010E-02   5.47623611E-04
  -6.30000010E-02   6.97705720E-04
  -5.20000011E-02   8.85495276E-04
  -4.10000011E-02   1.11541641E-03
  -2.99999993E-02   1.39491481E-03
  -1.89999994E-02   1.73589773E-03
  -8.00000038E-03   2.14684196E-03
   3.00000003E-03   2.63600331E-03
   1.40000004E-02   3.21723288E-03
   2.50000004E-02   3.90270539E-03
   3.59999985E-02   4.70100390E-03
   4.69999984E-02   5.62547613E-03
   5.79999983E-02   6.69032196E-03
   6.89999983E-02   7.90270511E-03
   7.99999982E-02   9.27003566E-03
   9.09999982E-02   1.08027868E-02
  0.101999998       1.25036621E-02
  0.112999998       1.43687604E-02
  0.123999998       1.63963921E-02
  0.135000005       1.85791198E-02
  0.145999998       2.08966937E-02
  0.157000005       2.33262815E-02
  0.167999998       2.58433744E-02
  0.179000005       2.84096599E-02
  0.189999998       3.09771337E-02
  0.201000005       3.34980749E-02
  0.211999997       3.59166600E-02
  0.223000005       3.81643623E-02
  0.233999997       4.01724987E-02
  0.245000005       4.18733396E-02
  0.256000012       4.31902185E-02
  0.266999990       4.40451801E-02
  0.277999997       4.43698354E-02
  0.289000005       4.40979563E-02
  0.300000012       4.31640595E-02
  0.310999990       4.15168740E-02
  0.321999997       3.91190834E-02
  0.333000004       3.59389521E-02
  0.344000012       3.19594294E-02
  0.354999989       2.71856599E-02
  0.365999997       2.16349196E-02
  0.377000004       1.53356921E-02
  0.388000011       8.33808538E-03
  0.398999989       7.08358653E-04
  0.409999996      -7.48047698E-03
  0.421000004      -1.61415823E-02
  0.432000011      -2.51729973E-02
  0.442999989      -3.44701782E-02
  0.453999996      -4.39258516E-02
  0.465000004      -5.34228534E-02
  0.476000011      -6.28429875E-02
  0.486999989      -7.20742568E-02
  0.497999996      -8.10026005E-02
  0.509000003      -8.95116255E-02
  0.519999981      -9.74930003E-02
  0.531000018     -0.104843229
  0.541999996     -0.111455441
  0.552999973     -0.117225885
  0.564000010     -0.122058883
  0.574999988     -0.125858322
  0.586000025     -0.128526375
  0.597000003     -0.129972994
  0.607999980     -0.130115569
  0.619000018     -0.128873095
  0.629999995     -0.126173258
  0.640999973     -0.121961288
  0.652000010     -0.116197430
  0.662999988     -0.108858332
  0.674000025      -9.99478400E-02
  0.685000002      -8.95006508E-02
  0.695999980      -7.75804296E-02
  0.707000017      -6.42855540E-02
  0.717999995      -4.97540347E-02
  0.728999972      -3.41600478E-02
  0.740000010      -1.77128408E-02
  0.750999987      -6.57969678E-04
  0.762000024       1.67297814E-02
  0.773000002       3.41540799E-02
  0.783999979       5.12995459E-02
  0.795000017       6.78410828E-02
  0.805999994       8.34587663E-02
  0.816999972       9.78444293E-02
  0.828000009      0.110707536
  0.838999987      0.121789917
  0.850000024      0.130877212
  0.861000001      0.137800232
  0.871999979      0.142440647
  0.883000016      0.144741252
  0.893999994      0.144706428
  0.904999971      0.142395884
  0.916000009      0.137924924
  0.926999986      0.131464958
  0.938000023      0.123232529
  0.949000001      0.113477409
  0.959999979      0.102479123
  0.971000016       9.05388966E-02
  0.981999993       7.79633969E-02
  0.992999971       6.50553554E-02
   1.00399995       5.21097146E-02
   1.01499999       3.94024178E-02
   1.02600002       2.71791648E-02
   1.03699994       1.56541876E-02
   1.04799998       5.00817131E-03
   1.05900002      -4.61888686E-03
   1.07000005      -1.31281558E-02
   1.08099997      -2.04573292E-02
   1.09200001      -2.65807491E-02
   1.10300004      -3.15088555E-02
   1.11399996      -3.52811143E-02
   1.12500000      -3.79602611E-02
   1.13600004      -3.96306999E-02
   1.14699996      -4.03932296E-02
   1.15799999      -4.03567515E-02
   1.16900003      -3.96350697E-02
   1.17999995      -3.83455269E-02
   1.19099998      -3.66027020E-02
   1.20200002      -3.45134027E-02
   1.21300006      -3.21777426E-02
   1.22399998      -2.96876952E-02
   1.23500001      -2.71219574E-02
   1.24600005      -2.45470926E-02
   1.25699997      -2.20207889E-02
   1.26800001      -1.95883084E-02
   1.27900004      -1.72817875E-02
   1.28999996      -1.51262917E-02
   1.30100000      -1.31394044E-02
   1.31200004      -1.13275507E-02
   1.32299995      -9.69166029E-03
   1.33399999      -8.23142007E-03
   1.34500003      -6.94008637E-03
   1.35599995      -5.80543652E-03
   1.36699998      -4.81740432E-03
   1.37800002      -3.96604231E-03
   1.38900006      -3.23667750E-03
