 -0.959999979       0.00000000
 -0.925000012       0.00000000
 -0.889999986       2.50832266E-09
 -0.855000019       2.58471875E-08
 -0.819999993       1.16054011E-07
 -0.785000026       3.14121053E-07
 -0.750000000       5.96726693E-07
 -0.714999974       1.06913160E-06
 -0.680000007       2.34136769E-06
 -0.644999981       5.29280578E-06
 -0.610000014       1.04816017E-05
 -0.574999988       1.87032929E-05
 -0.540000021       3.20337931E-05
 -0.504999995       5.30758480E-05
 -0.469999999       8.33088998E-05
 -0.435000002       1.22740064E-04
 -0.400000006       1.69415711E-04
 -0.365000010       2.17533787E-04
 -0.330000013       2.56722735E-04
 -0.294999987       2.73318525E-04
 -0.259999990       2.51740741E-04
 -0.224999994       1.77336216E-04
 -0.189999998       4.21710938E-05
 -0.155000001      -1.50171894E-04
 -0.119999997      -3.82762111E-04
  -8.50000009E-02  -6.21537154E-04
  -5.00000007E-02  -8.06712254E-04
  -1.49999997E-02  -8.41881265E-04
   1.99999996E-02  -5.83958463E-04
   5.49999997E-02   1.55288144E-04
   9.00000036E-02   1.57008681E-03
  0.125000000       3.75644979E-03
  0.159999996       6.53595710E-03
  0.194999993       9.23436228E-03
  0.230000004       1.04862740E-02
  0.264999986       8.17903038E-03
  0.300000012      -3.46543675E-04
  0.335000008      -1.77730303E-02
  0.370000005      -4.59927022E-02
  0.405000001      -8.51544961E-02
  0.439999998     -0.132828340
  0.474999994     -0.183583498
  0.509999990     -0.229225725
  0.545000017     -0.259806424
  0.579999983     -0.265331298
  0.615000010     -0.237887785
  0.649999976     -0.173749238
  0.685000002      -7.49494731E-02
  0.720000029       5.01299165E-02
  0.754999995      0.187450543
  0.790000021      0.319298416
  0.824999988      0.427236259
  0.860000014      0.495437890
  0.894999981      0.513679624
  0.930000007      0.479302973
  0.964999974      0.397682697
   1.00000000      0.281105071
   1.03499997      0.146356866
   1.07000005       1.16132759E-02
   1.10500002     -0.106677108
   1.13999999     -0.196277246
   1.17499995     -0.250599235
   1.21000004     -0.268968403
   1.24500000     -0.255851001
   1.27999997     -0.219347075
   1.31500006     -0.169317439
   1.35000002     -0.115515262
   1.38499999      -6.60458282E-02
   1.41999996      -2.63864547E-02
   1.45500004       9.30040085E-04
   1.49000001       1.60128810E-02
   1.52499998       2.08742879E-02
   1.55999994       1.85210127E-02
   1.59500003       1.21329995E-02
   1.63000000       4.48111584E-03
