 -0.800000012       0.00000000
 -0.788999975       0.00000000
 -0.777999997       0.00000000
 -0.767000020       0.00000000
 -0.755999982      -1.19482823E-14
 -0.745000005      -2.97155794E-14
 -0.734000027      -6.66404432E-13
 -0.722999990       2.75070440E-12
 -0.712000012      -6.44784616E-12
 -0.700999975       1.13554253E-11
 -0.689999998       7.56093452E-12
 -0.679000020      -1.10035772E-10
 -0.667999983       1.64014483E-10
 -0.657000005       2.87914248E-10
 -0.646000028      -9.53382151E-10
 -0.634999990      -1.18146146E-10
 -0.624000013       2.86612889E-09
 -0.612999976      -1.52795943E-09
 -0.601999998      -5.65793812E-09
 -0.591000021       5.93804517E-09
 -0.579999983       7.14152604E-09
 -0.569000006      -1.28283597E-08
 -0.558000028      -2.61562083E-09
 -0.546999991       1.86305869E-08
 -0.536000013      -1.33447395E-08
 -0.524999976      -1.77261494E-08
 -0.513999999       3.99744344E-08
 -0.503000021       6.27098640E-09
 -0.492000014      -5.91591736E-08
 -0.481000006       1.91716634E-08
 -0.469999999       3.46284388E-08
 -0.458999991      -7.15443278E-08
 -0.448000014       5.26101402E-08
 -0.437000006       1.59254441E-07
 -0.425999999      -1.55799526E-07
 -0.414999992      -2.18661782E-07
 -0.404000014       2.10890505E-07
 -0.393000007       1.11592854E-07
 -0.381999999      -2.70280282E-07
 -0.370999992       1.40296947E-07
 -0.360000014       3.45782780E-07
 -0.349000007      -3.26424413E-07
 -0.338000000      -1.25038000E-07
 -0.326999992       7.02902696E-07
 -0.316000015      -9.45487457E-08
 -0.305000007      -1.21313769E-06
 -0.294000000      -7.03991759E-07
 -0.282999992      -9.17224668E-07
 -0.272000015      -2.78976427E-06
 -0.261000007      -3.55493830E-06
 -0.250000000      -4.05721403E-06
 -0.238999993      -7.03241130E-06
 -0.228000000      -1.03119482E-05
 -0.216999993      -1.26318100E-05
 -0.206000000      -1.76911362E-05
 -0.194999993      -2.58143609E-05
 -0.184000000      -3.42717249E-05
 -0.172999993      -4.56469970E-05
 -0.162000000      -6.30475843E-05
 -0.150999993      -8.45287068E-05
 -0.140000001      -1.11084446E-04
 -0.128999993      -1.47791521E-04
 -0.118000001      -1.95402288E-04
 -0.107000001      -2.54107465E-04
  -9.60000008E-02  -3.29794770E-04
  -8.50000009E-02  -4.27101331E-04
  -7.40000010E-02  -5.47623727E-04
  -6.30000010E-02  -6.97705545E-04
  -5.20000011E-02  -8.85494868E-04
  -4.10000011E-02  -1.11541618E-03
  -2.99999993E-02  -1.39491493E-03
  -1.89999994E-02  -1.73589785E-03
  -8.00000038E-03  -2.14684149E-03
   3.00000003E-03  -2.63600214E-03
   1.40000004E-02  -3.21723358E-03
   2.50000004E-02  -3.90270655E-03
   3.59999985E-02  -4.70100250E-03
   4.69999984E-02  -5.62547427E-03
   5.79999983E-02  -6.69032289E-03
   6.89999983E-02  -7.90270604E-03
   7.99999982E-02  -9.27003380E-03
   9.09999982E-02  -1.08027831E-02
  0.101999998      -1.25036621E-02
  0.112999998      -1.43687679E-02
  0.123999998      -1.63963996E-02
  0.135000005      -1.85791217E-02
  0.145999998      -2.08966881E-02
  0.157000005      -2.33262759E-02
  0.167999998      -2.58433670E-02
  0.179000005      -2.84096580E-02
  0.189999998      -3.09771392E-02
  0.201000005      -3.34980711E-02
  0.211999997      -3.59166563E-02
  0.223000005      -3.81643698E-02
  0.233999997      -4.01725098E-02
  0.245000005      -4.18733321E-02
  0.256000012      -4.31902148E-02
  0.266999990      -4.40451801E-02
  0.277999997      -4.43698205E-02
  0.289000005      -4.40979488E-02
  0.300000012      -4.31640670E-02
  0.310999990      -4.15168963E-02
  0.321999997      -3.91190946E-02
  0.333000004      -3.59389447E-02
  0.344000012      -3.19594108E-02
  0.354999989      -2.71856580E-02
  0.365999997      -2.16349456E-02
  0.377000004      -1.53357005E-02
  0.388000011      -8.33805371E-03
  0.398999989      -7.08338921E-04
  0.409999996       7.48045463E-03
  0.421000004       1.61415692E-02
  0.432000011       2.51730401E-02
  0.442999989       3.44702266E-02
  0.453999996       4.39258218E-02
  0.465000004       5.34228086E-02
  0.476000011       6.28429949E-02
  0.486999989       7.20743015E-02
  0.497999996       8.10026228E-02
  0.509000003       8.95116106E-02
  0.519999981       9.74930003E-02
  0.531000018      0.104843251
  0.541999996      0.111455455
  0.552999973      0.117225878
  0.564000010      0.122058861
  0.574999988      0.125858322
  0.586000025      0.128526390
  0.597000003      0.129973024
  0.607999980      0.130115554
  0.619000018      0.128873080
  0.629999995      0.126173213
  0.640999973      0.121961243
  0.652000010      0.116197444
  0.662999988      0.108858362
  0.674000025       9.99478176E-02
  0.685000002       8.95006210E-02
  0.695999980       7.75804743E-02
  0.707000017       6.42855912E-02
  0.717999995       4.97540459E-02
  0.728999972       3.41600813E-02
  0.740000010       1.77128855E-02
  0.750999987       6.57949189E-04
  0.762000024      -1.67298168E-02
  0.773000002      -3.41540687E-02
  0.783999979      -5.12995273E-02
  0.795000017      -6.78410977E-02
  0.805999994      -8.34587663E-02
  0.816999972      -9.78444144E-02
  0.828000009     -0.110707514
  0.838999987     -0.121789895
  0.850000024     -0.130877182
  0.861000001     -0.137800202
  0.871999979     -0.142440647
  0.883000016     -0.144741312
  0.893999994     -0.144706532
  0.904999971     -0.142395869
  0.916000009     -0.137924865
  0.926999986     -0.131465018
  0.938000023     -0.123232551
  0.949000001     -0.113477275
  0.959999979     -0.102479033
  0.971000016      -9.05389488E-02
  0.981999993      -7.79634491E-02
  0.992999971      -6.50553405E-02
   1.00399995      -5.21097220E-02
   1.01499999      -3.94024476E-02
   1.02600002      -2.71791350E-02
   1.03699994      -1.56541169E-02
   1.04799998      -5.00815269E-03
   1.05900002       4.61881468E-03
   1.07000005       1.31280385E-02
   1.08099997       2.04572510E-02
   1.09200001       2.65807286E-02
   1.10300004       3.15088667E-02
   1.11399996       3.52811068E-02
   1.12500000       3.79602350E-02
   1.13600004       3.96307334E-02
   1.14699996       4.03933153E-02
   1.15799999       4.03567553E-02
   1.16900003       3.96349765E-02
   1.17999995       3.83454934E-02
   1.19099998       3.66027430E-02
   1.20200002       3.45133506E-02
   1.21300006       3.21776494E-02
   1.22399998       2.96877120E-02
   1.23500001       2.71220263E-02
   1.24600005       2.45470926E-02
   1.25699997       2.20207591E-02
   1.26800001       1.95883363E-02
   1.27900004       1.72818284E-02
   1.28999996       1.51262721E-02
   1.30100000       1.31393690E-02
   1.31200004       1.13275778E-02
   1.32299995       9.69172362E-03
   1.33399999       8.23144801E-03
   1.34500003       6.94005145E-03
   1.35599995       5.80533221E-03
   1.36699998       4.81727300E-03
   1.37800002       3.96599248E-03
   1.38900006       3.23674572E-03
