 -0.959999979       0.00000000
 -0.925000012      -1.30610640E-22
 -0.889999986       9.18207377E-08
 -0.855000019       1.47097364E-06
 -0.819999993       3.34273273E-06
 -0.785000026       2.11261977E-06
 -0.750000000       3.56753867E-06
 -0.714999974       1.96862238E-05
 -0.680000007       4.49591971E-05
 -0.644999981       6.76297495E-05
 -0.610000014       1.03427315E-04
 -0.574999988       1.79151000E-04
 -0.540000021       2.97891529E-04
 -0.504999995       4.48207516E-04
 -0.469999999       6.13031909E-04
 -0.435000002       7.60753290E-04
 -0.400000006       8.68362491E-04
 -0.365000010       9.37523495E-04
 -0.330000013       9.74991068E-04
 -0.294999987       1.05005130E-03
 -0.259999990       1.44581927E-03
 -0.224999994       2.75805360E-03
 -0.189999998       5.93808061E-03
 -0.155000001       1.23765133E-02
 -0.119999997       2.39148401E-02
  -8.50000009E-02   4.25957926E-02
  -5.00000007E-02   7.01063722E-02
  -1.49999997E-02  0.106858917
   1.99999996E-02  0.150703177
   5.49999997E-02  0.195632473
   9.00000036E-02  0.231122643
  0.125000000      0.242745608
  0.159999996      0.214623451
  0.194999993      0.133769244
  0.230000004      -4.74506197E-03
  0.264999986     -0.193615362
  0.300000012     -0.411829352
  0.335000008     -0.626997828
  0.370000005     -0.801453769
  0.405000001     -0.900355577
  0.439999998     -0.899069130
  0.474999994     -0.787771940
  0.509999990     -0.572571397
  0.545000017     -0.273625702
  0.579999983       7.83008635E-02
  0.615000010      0.445389956
  0.649999976      0.786123633
  0.685000002       1.05912983
  0.720000029       1.22808349
  0.754999995       1.26752687
  0.790000021       1.16856205
  0.824999988      0.942427814
  0.860000014      0.620001316
  0.894999981      0.246656537
  0.930000007     -0.126372784
  0.964999974     -0.451774061
   1.00000000     -0.694209337
   1.03499997     -0.834444880
   1.07000005     -0.869196355
   1.10500002     -0.808065474
   1.13999999     -0.669609070
   1.17499995     -0.478172302
   1.21000004     -0.261823893
   1.24500000      -5.02787270E-02
   1.27999997      0.128580838
   1.31500006      0.253665477
   1.35000002      0.315456420
   1.38499999      0.318090886
   1.41999996      0.276982993
   1.45500004      0.212460056
   1.49000001      0.142379984
   1.52499998       7.74794072E-02
   1.55999994       2.14994419E-02
   1.59500003      -2.49240715E-02
   1.63000000      -5.99843152E-02
