 -0.800000012       0.00000000
 -0.788999975       0.00000000
 -0.777999997       0.00000000
 -0.767000020       0.00000000
 -0.755999982      -2.37337927E-09
 -0.745000005       1.61121907E-08
 -0.734000027      -7.37000647E-08
 -0.722999990       2.05184094E-07
 -0.712000012      -1.98596254E-07
 -0.700999975      -5.40969495E-07
 -0.689999998       1.90790729E-06
 -0.679000020      -1.31481113E-06
 -0.667999983      -4.23616439E-06
 -0.657000005       9.61329806E-06
 -0.646000028       4.30895341E-07
 -0.634999990      -2.46371928E-05
 -0.624000013       1.98063663E-05
 -0.612999976       3.44677355E-05
 -0.601999998      -5.22407354E-05
 -0.591000021      -1.70610274E-05
 -0.579999983       4.59849434E-05
 -0.569000006      -3.78551631E-05
 -0.558000028       1.19770855E-04
 -0.546999991       1.01745689E-04
 -0.536000013      -6.07280002E-04
 -0.524999976      -1.15949551E-04
 -0.513999999       1.49546179E-03
 -0.503000021       5.52596284E-05
 -0.492000014      -2.56109214E-03
 -0.481000006       2.95874470E-05
 -0.469999999       3.10024107E-03
 -0.458999991      -1.42323319E-04
 -0.448000014      -2.10990873E-03
 -0.437000006       6.25513436E-04
 -0.425999999      -8.72449484E-04
 -0.414999992      -2.08543660E-03
 -0.404000014       4.70290706E-03
 -0.393000007       4.36610263E-03
 -0.381999999      -7.01072812E-03
 -0.370999992      -5.74712921E-03
 -0.360000014       6.65855361E-03
 -0.349000007       5.13267471E-03
 -0.338000000      -3.93128209E-03
 -0.326999992      -3.87945585E-03
 -0.316000015      -2.75923056E-03
 -0.305000007      -8.90945375E-04
 -0.294000000       5.72657166E-03
 -0.282999992      -9.17431142E-04
 -0.272000015      -1.41896978E-02
 -0.261000007      -2.67041381E-03
 -0.250000000       1.17147695E-02
 -0.238999993      -7.33605353E-03
 -0.228000000      -2.53068600E-02
 -0.216999993      -1.17424307E-02
 -0.206000000      -3.81565676E-03
 -0.194999993      -1.62601359E-02
 -0.184000000      -2.31144521E-02
 -0.172999993      -3.39164324E-02
 -0.162000000      -5.68451844E-02
 -0.150999993      -5.95483184E-02
 -0.140000001      -5.10229804E-02
 -0.128999993      -7.64463022E-02
 -0.118000001     -0.119341701
 -0.107000001     -0.142642528
  -9.60000008E-02 -0.165326104
  -8.50000009E-02 -0.203124046
  -7.40000010E-02 -0.241546750
  -6.30000010E-02 -0.292648405
  -5.20000011E-02 -0.364707112
  -4.10000011E-02 -0.427236140
  -2.99999993E-02 -0.483388990
  -1.89999994E-02 -0.569602072
  -8.00000038E-03 -0.670592248
   3.00000003E-03 -0.756622314
   1.40000004E-02 -0.847396910
   2.50000004E-02 -0.949380755
   3.59999985E-02  -1.03962493
   4.69999984E-02  -1.13258350
   5.79999983E-02  -1.23790944
   6.89999983E-02  -1.31086314
   7.99999982E-02  -1.34046209
   9.09999982E-02  -1.36749625
  0.101999998      -1.38272989
  0.112999998      -1.34527707
  0.123999998      -1.26048994
  0.135000005      -1.13308692
  0.145999998     -0.940103829
  0.157000005     -0.690772474
  0.167999998     -0.400792748
  0.179000005      -4.30887304E-02
  0.189999998      0.391386122
  0.201000005      0.871676922
  0.211999997       1.39376104
  0.223000005       1.96751583
  0.233999997       2.56745362
  0.245000005       3.17279625
  0.256000012       3.78844118
  0.266999990       4.39437246
  0.277999997       4.95169353
  0.289000005       5.44862890
  0.300000012       5.88121605
  0.310999990       6.22399855
  0.321999997       6.45706987
  0.333000004       6.57902193
  0.344000012       6.57822609
  0.354999989       6.43525696
  0.365999997       6.15595293
  0.377000004       5.75876379
  0.388000011       5.24217510
  0.398999989       4.60780144
  0.409999996       3.88297009
  0.421000004       3.08370948
  0.432000011       2.20928168
  0.442999989       1.28555763
  0.453999996      0.347132623
  0.465000004     -0.602789462
  0.476000011      -1.55897892
  0.486999989      -2.49948072
  0.497999996      -3.42444181
  0.509000003      -4.33857250
  0.519999981      -5.22211313
  0.531000018      -6.07339001
  0.541999996      -6.91571236
  0.552999973      -7.74674702
  0.564000010      -8.55018139
  0.574999988      -9.33117676
  0.586000025      -10.0897493
  0.597000003      -10.8060045
  0.607999980      -11.4663925
  0.619000018      -12.0545874
  0.629999995      -12.5366240
  0.640999973      -12.8782597
  0.652000010      -13.0487137
  0.662999988      -13.0141439
  0.674000025      -12.7449398
  0.685000002      -12.2108965
  0.695999980      -11.3816175
  0.707000017      -10.2412434
  0.717999995      -8.78960419
  0.728999972      -7.03549767
  0.740000010      -5.00285149
  0.750999987      -2.72895336
  0.762000024     -0.257719517
  0.773000002       2.35226202
  0.783999979       5.02685785
  0.795000017       7.68697500
  0.805999994       10.2470484
  0.816999972       12.6214705
  0.828000009       14.7360926
  0.838999987       16.5205688
  0.850000024       17.9076977
  0.861000001       18.8494987
  0.871999979       19.3152828
  0.883000016       19.2878113
  0.893999994       18.7728825
  0.904999971       17.7968426
  0.916000009       16.3968525
  0.926999986       14.6227007
  0.938000023       12.5362749
  0.949000001       10.2164173
  0.959999979       7.75707817
  0.971000016       5.23999500
  0.981999993       2.73162460
  0.992999971      0.310714483
   1.00399995      -1.94571054
   1.01499999      -3.98671079
   1.02600002      -5.76317692
   1.03699994      -7.22955179
   1.04799998      -8.37742901
   1.05900002      -9.21067429
   1.07000005      -9.72093582
   1.08099997      -9.92268944
   1.09200001      -9.85206127
   1.10300004      -9.53445053
   1.11399996      -9.00605583
   1.12500000      -8.32094383
   1.13600004      -7.51134062
   1.14699996      -6.60408688
   1.15799999      -5.65384007
   1.16900003      -4.70421839
   1.17999995      -3.77103877
   1.19099998      -2.88264942
   1.20200002      -2.06792474
   1.21300006      -1.32600033
   1.22399998     -0.661569655
   1.23500001      -9.87383798E-02
   1.24600005      0.360101014
   1.25699997      0.731095970
   1.26800001       1.01745713
   1.27900004       1.22346020
   1.28999996       1.36436439
   1.30100000       1.44556057
   1.31200004       1.47049522
   1.32299995       1.45700514
   1.33399999       1.41601741
   1.34500003       1.34485579
   1.35599995       1.25306284
   1.36699998       1.15594900
   1.37800002       1.05213583
   1.38900006      0.941836834
