 -0.959999979       0.00000000
 -0.925000012       2.14074928E-21
 -0.889999986       4.28149856E-21
 -0.855000019       2.14113232E-12
 -0.819999993       2.33306668E-12
 -0.785000026      -1.12750755E-11
 -0.750000000       7.48613671E-12
 -0.714999974       2.23256622E-11
 -0.680000007       1.45887729E-11
 -0.644999981       5.63265103E-12
 -0.610000014      -1.28657904E-10
 -0.574999988       1.58574112E-10
 -0.540000021       4.21314733E-10
 -0.504999995       4.56877418E-11
 -0.469999999      -7.32431171E-10
 -0.435000002      -4.58196148E-09
 -0.400000006       3.43950313E-09
 -0.365000010       5.74422332E-09
 -0.330000013      -5.89276672E-09
 -0.294999987       8.59783178E-09
 -0.259999990       1.56475668E-08
 -0.224999994      -3.33589441E-08
 -0.189999998      -2.59460524E-08
 -0.155000001       3.70616178E-08
 -0.119999997       5.32462181E-08
  -8.50000009E-02   4.36438583E-08
  -5.00000007E-02  -5.40572174E-08
  -1.49999997E-02  -1.13707557E-07
   1.99999996E-02   1.08668763E-08
   5.49999997E-02   1.18707739E-07
   9.00000036E-02   2.14690203E-08
  0.125000000       2.99059177E-09
  0.159999996       4.59957690E-08
  0.194999993      -1.66820044E-07
  0.230000004      -4.05823101E-07
  0.264999986       4.85317955E-08
  0.300000012       2.50026517E-07
  0.335000008      -6.26466274E-08
  0.370000005       4.18250124E-07
  0.405000001       7.62010359E-07
  0.439999998      -1.50083380E-07
  0.474999994      -5.45555849E-07
  0.509999990       3.88242341E-07
  0.545000017      -1.45879525E-07
  0.579999983      -1.18736136E-06
  0.615000010       5.17093895E-07
  0.649999976       1.39281951E-06
  0.685000002      -7.10008180E-07
  0.720000029      -9.22997174E-07
  0.754999995       4.38272878E-07
  0.790000021      -6.65826917E-07
  0.824999988      -1.31910178E-06
  0.860000014       1.29675027E-06
  0.894999981       2.11251086E-06
  0.930000007      -8.33320485E-07
  0.964999974      -1.81199505E-06
   1.00000000       2.66903527E-07
   1.03499997       7.64928245E-07
   1.07000005      -5.08478593E-07
   1.10500002      -1.14894661E-07
   1.13999999       1.42114993E-06
   1.17499995       1.00301054E-06
   1.21000004      -1.06293362E-06
   1.24500000      -1.64009282E-06
   1.27999997       7.86663890E-08
   1.31500006       1.21813116E-06
   1.35000002       4.14015688E-07
   1.38499999      -1.86587599E-07
   1.41999996      -6.85577248E-08
   1.45500004      -6.84837971E-07
   1.49000001      -8.03523051E-07
   1.52499998       6.92092783E-07
   1.55999994       1.23828818E-06
   1.59500003      -1.16011201E-07
   1.63000000      -7.66864446E-07
