 -0.959999979       0.00000000
 -0.925000012       0.00000000
 -0.889999986      -6.44513622E-23
 -0.855000019      -1.29096645E-22
 -0.819999993      -2.09711060E-14
 -0.785000026      -9.98789810E-14
 -0.750000000       1.00311056E-13
 -0.714999974       1.81341324E-13
 -0.680000007       2.41986525E-13
 -0.644999981      -8.02542494E-13
 -0.610000014      -4.12601940E-12
 -0.574999988       5.56275685E-12
 -0.540000021       1.55711138E-11
 -0.504999995      -3.12006219E-11
 -0.469999999      -1.05527885E-10
 -0.435000002      -1.04479779E-10
 -0.400000006       1.16084302E-10
 -0.365000010       1.05622337E-10
 -0.330000013       1.68977818E-11
 -0.294999987      -2.76990486E-10
 -0.259999990       8.29503966E-10
 -0.224999994      -4.11513851E-10
 -0.189999998      -3.49185947E-09
 -0.155000001       2.07080975E-09
 -0.119999997       5.63799407E-09
  -8.50000009E-02  -1.97733985E-09
  -5.00000007E-02  -7.36063344E-09
  -1.49999997E-02  -3.59016683E-09
   1.99999996E-02   4.59577132E-09
   5.49999997E-02   5.92845018E-09
   9.00000036E-02  -8.30235880E-09
  0.125000000      -1.16114096E-08
  0.159999996       1.28153861E-08
  0.194999993       8.18811507E-09
  0.230000004      -1.95638510E-08
  0.264999986       4.37500214E-09
  0.300000012       3.19202904E-08
  0.335000008      -2.14496043E-09
  0.370000005      -1.86653768E-08
  0.405000001      -2.45147791E-10
  0.439999998       5.05862330E-09
  0.474999994      -9.04416364E-09
  0.509999990      -1.98381276E-08
  0.545000017      -9.78009407E-09
  0.579999983       3.03733749E-08
  0.615000010       4.17747330E-08
  0.649999976       1.75239681E-08
  0.685000002      -1.35382345E-08
  0.720000029      -3.85031313E-08
  0.754999995      -6.06946244E-08
  0.790000021      -1.16122605E-08
  0.824999988       6.73485232E-08
  0.860000014       4.54771367E-08
  0.894999981      -3.84493752E-08
  0.930000007      -8.38213765E-08
  0.964999974      -6.56086030E-08
   1.00000000       3.11148369E-08
   1.03499997       9.06026543E-08
   1.07000005       1.13356764E-08
   1.10500002      -9.54285397E-08
   1.13999999      -7.09489925E-08
   1.17499995       4.50436950E-08
   1.21000004       1.13149881E-07
   1.24500000       6.50383711E-08
   1.27999997      -6.32330810E-08
   1.31500006      -1.18085623E-07
   1.35000002      -3.01556220E-08
   1.38499999       5.21834238E-08
   1.41999996       4.71532111E-08
   1.45500004       1.04095488E-08
   1.49000001      -2.63717759E-08
   1.52499998      -5.30296589E-08
   1.55999994      -3.75016818E-08
   1.59500003       9.58283941E-09
   1.63000000       3.81469931E-08
