 -0.800000012       0.00000000
 -0.788999975       0.00000000
 -0.777999997       0.00000000
 -0.767000020       8.57571880E-09
 -0.755999982      -1.56412767E-08
 -0.745000005      -2.54654594E-07
 -0.734000027       3.95114483E-07
 -0.722999990       1.29147656E-06
 -0.712000012      -2.23337270E-06
 -0.700999975      -3.24143548E-06
 -0.689999998       6.90338493E-06
 -0.679000020       4.53899202E-06
 -0.667999983      -1.45192253E-05
 -0.657000005      -2.32132879E-06
 -0.646000028       2.21830414E-05
 -0.634999990      -3.17565400E-06
 -0.624000013      -2.11633414E-05
 -0.612999976       4.90399816E-06
 -0.601999998      -5.54168309E-06
 -0.591000021       2.21775872E-06
 -0.579999983       7.12877518E-05
 -0.569000006      -6.79819232E-06
 -0.558000028      -1.52653884E-04
 -0.546999991      -7.81716494E-07
 -0.536000013       1.89858183E-04
 -0.524999976      -1.86636657E-06
 -0.513999999      -1.54919893E-04
 -0.503000021       2.54981096E-05
 -0.492000014       7.17787043E-05
 -0.481000006      -1.50688475E-05
 -0.469999999       8.28545890E-05
 -0.458999991      -3.82375811E-06
 -0.448000014      -2.85828690E-04
 -0.437000006      -1.36045535E-04
 -0.425999999       1.41968761E-04
 -0.414999992      -3.71902970E-05
 -0.404000014      -2.20543690E-04
 -0.393000007      -2.50323035E-04
 -0.381999999      -5.42241440E-04
 -0.370999992      -6.67878194E-04
 -0.360000014      -4.42492019E-04
 -0.349000007      -7.34743138E-04
 -0.338000000      -1.43212930E-03
 -0.326999992      -1.72546122E-03
 -0.316000015      -2.13330030E-03
 -0.305000007      -3.09414463E-03
 -0.294000000      -3.92611837E-03
 -0.282999992      -4.90424363E-03
 -0.272000015      -6.86722901E-03
 -0.261000007      -9.20832343E-03
 -0.250000000      -1.14357481E-02
 -0.238999993      -1.44614605E-02
 -0.228000000      -1.86480507E-02
 -0.216999993      -2.35424433E-02
 -0.206000000      -2.94677261E-02
 -0.194999993      -3.69387306E-02
 -0.184000000      -4.57915366E-02
 -0.172999993      -5.61381094E-02
 -0.162000000      -6.85759634E-02
 -0.150999993      -8.33036751E-02
 -0.140000001     -0.100304231
 -0.128999993     -0.119959109
 -0.118000001     -0.142603472
 -0.107000001     -0.168062881
  -9.60000008E-02 -0.196287677
  -8.50000009E-02 -0.227645606
  -7.40000010E-02 -0.262006789
  -6.30000010E-02 -0.298765749
  -5.20000011E-02 -0.337859362
  -4.10000011E-02 -0.378991753
  -2.99999993E-02 -0.420746535
  -1.89999994E-02 -0.462141305
  -8.00000038E-03 -0.502854824
   3.00000003E-03 -0.541279078
   1.40000004E-02 -0.575254619
   2.50000004E-02 -0.603555202
   3.59999985E-02 -0.624342263
   4.69999984E-02 -0.634993613
   5.79999983E-02 -0.633873045
   6.89999983E-02 -0.619173586
   7.99999982E-02 -0.588104010
   9.09999982E-02 -0.538946271
  0.101999998     -0.470532715
  0.112999998     -0.380826533
  0.123999998     -0.268951207
  0.135000005     -0.135217831
  0.145999998       2.10335590E-02
  0.157000005      0.199433491
  0.167999998      0.397282809
  0.179000005      0.612523377
  0.189999998      0.843181551
  0.201000005       1.08476734
  0.211999997       1.33243930
  0.223000005       1.58198082
  0.233999997       1.82725036
  0.245000005       2.06139159
  0.256000012       2.27870703
  0.266999990       2.47256851
  0.277999997       2.63575625
  0.289000005       2.76261234
  0.300000012       2.84721613
  0.310999990       2.88304424
  0.321999997       2.86595273
  0.333000004       2.79313278
  0.344000012       2.66121054
  0.354999989       2.46891356
  0.365999997       2.21762705
  0.377000004       1.90862930
  0.388000011       1.54429471
  0.398999989       1.13035882
  0.409999996      0.673847854
  0.421000004      0.181893095
  0.432000011     -0.336187363
  0.442999989     -0.869056821
  0.453999996      -1.40552521
  0.465000004      -1.93409729
  0.476000011      -2.44183922
  0.486999989      -2.91594577
  0.497999996      -3.34495163
  0.509000003      -3.71747303
  0.519999981      -4.02251911
  0.531000018      -4.25178432
  0.541999996      -4.39900970
  0.552999973      -4.45862484
  0.564000010      -4.42813683
  0.574999988      -4.30877352
  0.586000025      -4.10253572
  0.597000003      -3.81349540
  0.607999980      -3.45039988
  0.619000018      -3.02327585
  0.629999995      -2.54200363
  0.640999973      -2.02006602
  0.652000010      -1.47273362
  0.662999988     -0.913055301
  0.674000025     -0.354963183
  0.685000002      0.185804635
  0.695999980      0.696660876
  0.707000017       1.16729605
  0.717999995       1.58646238
  0.728999972       1.94566882
  0.740000010       2.24060130
  0.750999987       2.46719646
  0.762000024       2.62308884
  0.773000002       2.71048260
  0.783999979       2.73275256
  0.795000017       2.69330549
  0.805999994       2.59880304
  0.816999972       2.45763445
  0.828000009       2.27704620
  0.838999987       2.06526780
  0.850000024       1.83206737
  0.861000001       1.58573902
  0.871999979       1.33340776
  0.883000016       1.08290482
  0.893999994      0.841139078
  0.904999971      0.612769246
  0.916000009      0.401829600
  0.926999986      0.212081090
  0.938000023       4.54732254E-02
  0.949000001      -9.74574313E-02
  0.959999979     -0.216131657
  0.971000016     -0.310726821
  0.981999993     -0.383076102
  0.992999971     -0.435099006
   1.00399995     -0.468200535
   1.01499999     -0.484857231
   1.02600002     -0.488104969
   1.03699994     -0.479842633
   1.04799998     -0.462066114
   1.05900002     -0.437720418
   1.07000005     -0.408720434
   1.08099997     -0.376088768
   1.09200001     -0.341831207
   1.10300004     -0.307633311
   1.11399996     -0.273728698
   1.12500000     -0.240916714
   1.13600004     -0.210506812
   1.14699996     -0.182374641
   1.15799999     -0.156277344
   1.16900003     -0.133112639
   1.17999995     -0.112895489
   1.19099998      -9.46797356E-02
   1.20200002      -7.86914378E-02
   1.21300006      -6.53512552E-02
   1.22399998      -5.37994504E-02
   1.23500001      -4.36411612E-02
   1.24600005      -3.54257636E-02
   1.25699997      -2.87406929E-02
   1.26800001      -2.27902755E-02
   1.27900004      -1.78997740E-02
   1.28999996      -1.41804991E-02
   1.30100000      -1.08964611E-02
   1.31200004      -8.09033681E-03
   1.32299995      -6.17971085E-03
   1.33399999      -4.59384220E-03
   1.34500003      -3.03460844E-03
   1.35599995      -2.06308370E-03
   1.36699998      -1.43432850E-03
   1.37800002      -5.50059427E-04
   1.38900006       8.18241097E-05
