 -0.800000012       0.00000000
 -0.788999975      -8.21004869E-05
 -0.777999997      -2.39140762E-04
 -0.767000020       6.37801422E-05
 -0.755999982       6.12211647E-04
 -0.745000005      -1.11703712E-05
 -0.734000027      -9.93034220E-04
 -0.722999990      -1.57294140E-04
 -0.712000012       8.37228901E-04
 -0.700999975      -1.90054197E-04
 -0.689999998      -9.45997599E-04
 -0.679000020      -1.30351356E-04
 -0.667999983       8.07410906E-05
 -0.657000005      -4.28787112E-04
 -0.646000028      -7.95915839E-04
 -0.634999990      -1.74093398E-03
 -0.624000013      -2.05966271E-03
 -0.612999976      -1.26628671E-03
 -0.601999998      -2.48901523E-03
 -0.591000021      -4.88050841E-03
 -0.579999983      -4.87915659E-03
 -0.569000006      -5.61101362E-03
 -0.558000028      -9.36359353E-03
 -0.546999991      -1.11984499E-02
 -0.536000013      -1.20857302E-02
 -0.524999976      -1.81865990E-02
 -0.513999999      -2.57638879E-02
 -0.503000021      -3.02764438E-02
 -0.492000014      -3.81340086E-02
 -0.481000006      -5.14584184E-02
 -0.469999999      -6.41361028E-02
 -0.458999991      -7.85865039E-02
 -0.448000014     -0.100960940
 -0.437000006     -0.128375262
 -0.425999999     -0.159431100
 -0.414999992     -0.198655829
 -0.404000014     -0.245585173
 -0.393000007     -0.299805969
 -0.381999999     -0.367272377
 -0.370999992     -0.448702127
 -0.360000014     -0.540742695
 -0.349000007     -0.648320973
 -0.338000000     -0.775716662
 -0.326999992     -0.918846607
 -0.316000015      -1.07901442
 -0.305000007      -1.26249063
 -0.294000000      -1.46598935
 -0.282999992      -1.68466866
 -0.272000015      -1.92252767
 -0.261000007      -2.17927217
 -0.250000000      -2.44611883
 -0.238999993      -2.71907067
 -0.228000000      -2.99612164
 -0.216999993      -3.26736116
 -0.206000000      -3.52240443
 -0.194999993      -3.75440764
 -0.184000000      -3.95132565
 -0.172999993      -4.09823322
 -0.162000000      -4.18449497
 -0.150999993      -4.19714022
 -0.140000001      -4.11842585
 -0.128999993      -3.93565416
 -0.118000001      -3.64011931
 -0.107000001      -3.21936440
  -9.60000008E-02  -2.66338181
  -8.50000009E-02  -1.96997607
  -7.40000010E-02  -1.13728726
  -6.30000010E-02 -0.164733186
  -5.20000011E-02  0.937731206
  -4.10000011E-02   2.15425372
  -2.99999993E-02   3.46995735
  -1.89999994E-02   4.86327410
  -8.00000038E-03   6.30323982
   3.00000003E-03   7.75778675
   1.40000004E-02   9.19221687
   2.50000004E-02   10.5648956
   3.59999985E-02   11.8351126
   4.69999984E-02   12.9653635
   5.79999983E-02   13.9144373
   6.89999983E-02   14.6426792
   7.99999982E-02   15.1198540
   9.09999982E-02   15.3192759
  0.101999998       15.2175150
  0.112999998       14.8040380
  0.123999998       14.0779896
  0.135000005       13.0417013
  0.145999998       11.7090578
  0.157000005       10.1082401
  0.167999998       8.27187347
  0.179000005       6.23821783
  0.189999998       4.05677080
  0.201000005       1.78018463
  0.211999997     -0.539517164
  0.223000005      -2.84423900
  0.233999997      -5.07489824
  0.245000005      -7.18076992
  0.256000012      -9.11441898
  0.266999990      -10.8296738
  0.277999997      -12.2909212
  0.289000005      -13.4725065
  0.300000012      -14.3529015
  0.310999990      -14.9213734
  0.321999997      -15.1814852
  0.333000004      -15.1418142
  0.344000012      -14.8152113
  0.354999989      -14.2262640
  0.365999997      -13.4068880
  0.377000004      -12.3896494
  0.388000011      -11.2121563
  0.398999989      -9.91655064
  0.409999996      -8.54093742
  0.421000004      -7.12125444
  0.432000011      -5.69671965
  0.442999989      -4.30263567
  0.453999996      -2.96566963
  0.465000004      -1.71089458
  0.476000011     -0.560857296
  0.486999989      0.471893847
  0.497999996       1.37898433
  0.509000003       2.15044045
  0.519999981       2.78421092
  0.531000018       3.28811312
  0.541999996       3.66781664
  0.552999973       3.92776299
  0.564000010       4.08023930
  0.574999988       4.13908625
  0.586000025       4.11368561
  0.597000003       4.01718855
  0.607999980       3.86637282
  0.619000018       3.67186427
  0.629999995       3.44187427
  0.640999973       3.18903112
  0.652000010       2.92387819
  0.662999988       2.65260005
  0.674000025       2.38342977
  0.685000002       2.12320447
  0.695999980       1.87280130
  0.707000017       1.63511658
  0.717999995       1.41673660
  0.728999972       1.21848440
  0.740000010       1.03760612
  0.750999987      0.876151979
  0.762000024      0.735496640
  0.773000002      0.611497283
  0.783999979      0.502799213
  0.795000017      0.412018508
  0.805999994      0.336654007
  0.816999972      0.271303028
  0.828000009      0.215852723
  0.838999987      0.171382710
  0.850000024      0.135016039
  0.861000001      0.104962461
  0.871999979       8.17547068E-02
  0.883000016       6.32515177E-02
  0.893999994       4.70401011E-02
  0.904999971       3.44881490E-02
  0.916000009       2.61757430E-02
  0.926999986       1.98572408E-02
  0.938000023       1.52595341E-02
  0.949000001       1.30895479E-02
  0.959999979       1.14313327E-02
  0.971000016       9.82559752E-03
  0.981999993       1.07861729E-02
  0.992999971       1.35272965E-02
   1.00399995       1.45966029E-02
   1.01499999       1.45209748E-02
   1.02600002       1.54744769E-02
   1.03699994       1.63155347E-02
   1.04799998       1.60751510E-02
   1.05900002       1.60118621E-02
   1.07000005       1.55632775E-02
   1.08099997       1.30536649E-02
   1.09200001       9.59462021E-03
   1.10300004       6.92234235E-03
   1.11399996       4.50105965E-03
   1.12500000       1.60090206E-03
   1.13600004      -1.49329775E-03
   1.14699996      -4.61333338E-03
   1.15799999      -7.28297792E-03
   1.16900003      -8.72086454E-03
   1.17999995      -9.35361069E-03
   1.19099998      -1.01808188E-02
   1.20200002      -1.10884896E-02
   1.21300006      -1.14875194E-02
   1.22399998      -1.12847835E-02
   1.23500001      -1.04157310E-02
   1.24600005      -8.92668497E-03
   1.25699997      -7.59539055E-03
   1.26800001      -7.15834834E-03
   1.27900004      -7.06385216E-03
   1.28999996      -6.09683339E-03
   1.30100000      -4.24358109E-03
   1.31200004      -2.71725259E-03
   1.32299995      -1.91576185E-03
   1.33399999      -9.48273519E-04
   1.34500003       6.09032984E-04
   1.35599995       2.37919390E-03
   1.36699998       4.34912788E-03
   1.37800002       6.43835543E-03
   1.38900006       7.84398243E-03
