 -0.959999979       0.00000000
 -0.925000012      -2.07973443E-08
 -0.889999986      -2.60028344E-07
 -0.855000019      -3.92678004E-07
 -0.819999993      -5.60403578E-07
 -0.785000026      -1.85385727E-06
 -0.750000000      -4.07469906E-06
 -0.714999974      -8.79777508E-06
 -0.680000007      -1.76370504E-05
 -0.644999981      -2.66886746E-05
 -0.610000014      -4.27176274E-05
 -0.574999988      -8.38398992E-05
 -0.540000021      -1.41434764E-04
 -0.504999995      -1.94080028E-04
 -0.469999999      -2.57097185E-04
 -0.435000002      -3.38237063E-04
 -0.400000006      -3.95980169E-04
 -0.365000010      -4.27601160E-04
 -0.330000013      -5.17063658E-04
 -0.294999987      -8.08203244E-04
 -0.259999990      -1.64003647E-03
 -0.224999994      -3.75055592E-03
 -0.189999998      -8.29119328E-03
 -0.155000001      -1.67934503E-02
 -0.119999997      -3.11227236E-02
  -8.50000009E-02  -5.30298278E-02
  -5.00000007E-02  -8.32647607E-02
  -1.49999997E-02 -0.120628156
   1.99999996E-02 -0.161065102
   5.49999997E-02 -0.196999028
   9.00000036E-02 -0.217621684
  0.125000000     -0.210543379
  0.159999996     -0.164486572
  0.194999993      -7.25798309E-02
  0.230000004       6.44197389E-02
  0.264999986      0.236208752
  0.300000012      0.423270196
  0.335000008      0.599418342
  0.370000005      0.736019492
  0.405000001      0.807095468
  0.439999998      0.794052839
  0.474999994      0.688918293
  0.509999990      0.495790482
  0.545000017      0.230598688
  0.579999983      -8.07533637E-02
  0.615000010     -0.405481517
  0.649999976     -0.707657039
  0.685000002     -0.952212572
  0.720000029      -1.10898030
  0.754999995      -1.15642285
  0.790000021      -1.08478332
  0.824999988     -0.898441672
  0.860000014     -0.617087781
  0.894999981     -0.274969250
  0.930000007       8.26484784E-02
  0.964999974      0.406158864
   1.00000000      0.650668859
   1.03499997      0.785497069
   1.07000005      0.801314533
   1.10500002      0.712120235
   1.13999999      0.550749719
   1.17499995      0.359153628
   1.21000004      0.176789016
   1.24500000       3.11506540E-02
   1.27999997      -6.64241537E-02
   1.31500006     -0.118874080
   1.35000002     -0.137405649
   1.38499999     -0.134816259
   1.41999996     -0.121127442
   1.45500004     -0.102665365
   1.49000001      -8.36293623E-02
   1.52499998      -6.79586083E-02
   1.55999994      -5.95912114E-02
   1.59500003      -6.07380345E-02
   1.63000000      -6.95418045E-02
