 -0.959999979       3.82220969E-02
 -0.925000012       3.72468377E-03
 -0.889999986       2.94005014E-02
 -0.855000019      0.134865224
 -0.819999993      0.244087204
 -0.785000026      0.423526317
 -0.750000000      0.797919095
 -0.714999974       1.37894118
 -0.680000007       2.17672038
 -0.644999981       3.22212029
 -0.610000014       4.36052465
 -0.574999988       5.20356321
 -0.540000021       5.18329144
 -0.504999995       3.48126459
 -0.469999999     -0.856829941
 -0.435000002      -8.46247578
 -0.400000006      -19.1865749
 -0.365000010      -31.7498817
 -0.330000013      -43.4472961
 -0.294999987      -50.3242378
 -0.259999990      -48.1674919
 -0.224999994      -33.9277420
 -0.189999998      -7.05669212
 -0.155000001       29.5525875
 -0.119999997       69.5717087
  -8.50000009E-02   104.646019
  -5.00000007E-02   126.716431
  -1.49999997E-02   130.173309
   1.99999996E-02   113.131142
   5.49999997E-02   77.5610199
   9.00000036E-02   28.3056316
  0.125000000      -28.3247852
  0.159999996      -85.3879471
  0.194999993      -135.412231
  0.230000004      -170.446930
  0.264999986      -182.802612
  0.300000012      -166.867752
  0.335000008      -121.779533
  0.370000005      -53.6945152
  0.405000001       24.1280804
  0.439999998       94.2411423
  0.474999994       140.182266
  0.509999990       152.077454
  0.545000017       130.254883
  0.579999983       84.9702988
  0.615000010       32.2636490
  0.649999976      -12.1023102
  0.685000002      -38.0336609
  0.720000029      -43.7357674
  0.754999995      -34.7286758
  0.790000021      -20.1321545
  0.824999988      -8.29998493
  0.860000014      -3.70117021
  0.894999981      -5.98240757
  0.930000007      -11.2088747
  0.964999974      -14.4552155
   1.00000000      -12.3997107
   1.03499997      -4.79597425
   1.07000005       5.59222317
   1.10500002       14.4133720
   1.13999999       17.8753166
   1.17499995       14.5927391
   1.21000004       6.21034813
   1.24500000      -3.42251062
   1.27999997      -10.0632019
   1.31500006      -11.0678930
   1.35000002      -6.62044621
   1.38499999      0.473388731
   1.41999996       6.28866243
   1.45500004       7.75041294
   1.49000001       4.14147139
   1.52499998      -2.55851746
   1.55999994      -8.75201035
   1.59500003      -11.1655979
   1.63000000      -8.54075909
