 -0.800000012       0.00000000
 -0.788999975       0.00000000
 -0.777999997       0.00000000
 -0.767000020       4.02953765E-20
 -0.755999982       0.00000000
 -0.745000005       1.03339949E-12
 -0.734000027      -3.30687838E-11
 -0.722999990       7.02711639E-11
 -0.712000012       0.00000000
 -0.700999975      -1.32275135E-10
 -0.689999998       3.30687838E-11
 -0.679000020       4.62962974E-10
 -0.667999983      -5.62169311E-10
 -0.657000005      -6.61375676E-11
 -0.646000028       7.10978831E-10
 -0.634999990      -6.61375676E-10
 -0.624000013      -1.32275135E-09
 -0.612999976       2.64550271E-09
 -0.601999998       2.91005309E-09
 -0.591000021      -8.33333313E-09
 -0.579999983      -3.17460325E-09
 -0.569000006       1.66666663E-08
 -0.558000028       6.87830681E-09
 -0.546999991      -4.62962966E-08
 -0.536000013       3.65079380E-08
 -0.524999976       3.33333325E-08
 -0.513999999      -8.02248721E-08
 -0.503000021      -3.17460325E-09
 -0.492000014       8.25396853E-08
 -0.481000006       1.37566136E-08
 -0.469999999      -2.22222223E-08
 -0.458999991      -1.16402120E-07
 -0.448000014      -2.53968260E-08
 -0.437000006       2.85185195E-07
 -0.425999999      -1.20105824E-07
 -0.414999992      -3.67195781E-07
 -0.404000014       6.31216949E-07
 -0.393000007      -1.23809528E-07
 -0.381999999      -9.48677268E-07
 -0.370999992       1.51216932E-06
 -0.360000014      -2.81481476E-07
 -0.349000007      -3.48677258E-06
 -0.338000000       4.25608459E-06
 -0.326999992       5.15714282E-06
 -0.316000015      -1.21015873E-05
 -0.305000007      -2.27513237E-06
 -0.294000000       2.27783075E-05
 -0.282999992      -1.29619048E-05
 -0.272000015      -2.87967596E-05
 -0.261000007       4.18211639E-05
 -0.250000000       1.93068790E-05
 -0.238999993      -7.07365107E-05
 -0.228000000       9.86031773E-06
 -0.216999993       8.01127026E-05
 -0.206000000      -5.36158732E-05
 -0.194999993      -5.43576716E-05
 -0.184000000       9.33873016E-05
 -0.172999993      -9.18941805E-06
 -0.162000000      -9.73793649E-05
 -0.150999993       8.27301628E-05
 -0.140000001       5.58727515E-05
 -0.128999993      -1.26142331E-04
 -0.118000001       5.88783087E-06
 -0.107000001       1.14378839E-04
  -9.60000008E-02  -4.66664023E-05
  -8.50000009E-02  -3.08465605E-05
  -7.40000010E-02   2.05883607E-05
  -6.30000010E-02  -9.21460305E-05
  -5.20000011E-02   5.35523832E-05
  -4.10000011E-02   1.70395768E-04
  -2.99999993E-02  -1.33252906E-04
  -1.89999994E-02  -1.01255027E-04
  -8.00000038E-03   1.95762972E-04
   3.00000003E-03  -8.66709015E-05
   1.40000004E-02  -1.91115352E-04
   2.50000004E-02   2.54434941E-04
   3.59999985E-02  -7.19788386E-06
   4.69999984E-02  -2.65420123E-04
   5.79999983E-02   2.57004227E-04
   6.89999983E-02   2.12931758E-04
   7.99999982E-02  -4.60140756E-04
   9.09999982E-02   4.17820120E-05
  0.101999998       4.67432808E-04
  0.112999998      -3.65864573E-04
  0.123999998      -3.32562980E-04
  0.135000005       5.06827550E-04
  0.145999998       9.04042317E-05
  0.157000005      -4.42946039E-04
  0.167999998       2.15356617E-04
  0.179000005       3.26416950E-04
  0.189999998      -2.79314292E-04
  0.201000005      -1.10162968E-04
  0.211999997      -4.31559805E-04
  0.223000005       9.46116415E-05
  0.233999997       1.16533332E-03
  0.245000005      -2.50971440E-04
  0.256000012      -1.12948578E-03
  0.266999990       9.24626482E-04
  0.277999997       5.87710347E-05
  0.289000005      -1.79938204E-03
  0.300000012       8.14565108E-04
  0.310999990       2.68154079E-03
  0.321999997      -1.17837882E-03
  0.333000004      -2.22954503E-03
  0.344000012       3.87860317E-04
  0.354999989       1.25016726E-03
  0.365999997       2.23729105E-04
  0.377000004       8.55534381E-05
  0.388000011      -6.68969355E-04
  0.398999989      -1.03612279E-03
  0.409999996       7.24503712E-04
  0.421000004       9.81384190E-04
  0.432000011      -6.89371431E-04
  0.442999989       2.68427510E-04
  0.453999996       7.31403183E-04
  0.465000004      -1.75282964E-03
  0.476000011       9.73121714E-05
  0.486999989       2.29894812E-03
  0.497999996      -1.38496934E-03
  0.509000003      -2.09574611E-03
  0.519999981       2.83188163E-03
  0.531000018       8.69570416E-04
  0.541999996      -3.61843826E-03
  0.552999973       1.30038522E-03
  0.564000010       2.55778199E-03
  0.574999988      -1.96209108E-03
  0.586000025      -2.03714706E-03
  0.597000003       2.71080644E-03
  0.607999980       3.09722760E-04
  0.619000018      -3.36008472E-03
  0.629999995       1.39730796E-03
  0.640999973       3.86092719E-03
  0.652000010      -9.03089996E-04
  0.662999988      -4.18408494E-03
  0.674000025      -2.37737579E-04
  0.685000002       2.86585395E-03
  0.695999980       9.81583144E-04
  0.707000017      -7.21862423E-04
  0.717999995      -5.65934402E-04
  0.728999972      -7.94531254E-04
  0.740000010      -4.68833867E-04
  0.750999987       6.68512192E-04
  0.762000024       1.47238944E-03
  0.773000002       3.59026453E-04
  0.783999979      -1.62736932E-03
  0.795000017      -1.63156830E-03
  0.805999994       5.07200020E-04
  0.816999972       2.84765288E-03
  0.828000009       1.15177571E-03
  0.838999987      -2.84942240E-03
  0.850000024      -1.75684656E-03
  0.861000001       1.59249955E-03
  0.871999979      -2.59685330E-04
  0.883000016      -2.63296824E-04
  0.893999994       2.59980327E-03
  0.904999971       2.10370374E-04
  0.916000009      -2.24119797E-03
  0.926999986      -1.24427304E-03
  0.938000023       5.57777763E-04
  0.949000001       6.99102646E-04
  0.959999979       8.27940763E-04
  0.971000016       1.61717460E-03
  0.981999993      -7.67822261E-04
  0.992999971      -2.83739902E-03
   1.00399995      -3.05883616E-04
   1.01499999       1.24616513E-03
   1.02600002       5.32148173E-04
   1.03699994       8.49284930E-04
   1.04799998       5.33459650E-04
   1.05900002      -1.26288040E-03
   1.07000005      -1.02666195E-03
   1.08099997       4.32281900E-04
   1.09200001      -7.74867731E-05
   1.10300004       3.49858223E-04
   1.11399996       1.75044127E-03
   1.12500000      -5.57044346E-04
   1.13600004      -2.85092811E-03
   1.14699996       4.27062972E-04
   1.15799999       2.80732592E-03
   1.16900003      -1.12207410E-04
   1.17999995      -1.69550581E-03
   1.19099998      -3.98480421E-04
   1.20200002      -1.58582006E-05
   1.21300006       6.79498422E-04
   1.22399998       1.18990906E-03
   1.23500001      -4.05595783E-04
   1.24600005      -5.93101606E-04
   1.25699997       8.77775165E-05
   1.26800001      -1.28333119E-03
   1.27900004       1.59610325E-04
   1.28999996       2.95842648E-03
   1.30100000      -6.19772472E-04
   1.31200004      -3.12955352E-03
   1.32299995       1.43022335E-03
   1.33399999       1.44927017E-03
   1.34500003      -2.39319308E-03
   1.35599995       1.06127781E-03
   1.36699998       2.71197408E-03
   1.37800002      -2.96861702E-03
   1.38900006      -1.88837515E-03
