 -0.959999979       0.00000000
 -0.925000012       2.63328707E-21
 -0.889999986       5.24688903E-06
 -0.855000019       7.35617650E-05
 -0.819999993       3.33957214E-05
 -0.785000026      -1.03687998E-04
 -0.750000000       1.86826190E-04
 -0.714999974       7.34239991E-04
 -0.680000007       7.09926535E-04
 -0.644999981       5.85532340E-04
 -0.610000014       1.46004162E-03
 -0.574999988       2.86701671E-03
 -0.540000021       3.91811831E-03
 -0.504999995       4.67133708E-03
 -0.469999999       4.74727945E-03
 -0.435000002       3.69392638E-03
 -0.400000006       2.45495047E-03
 -0.365000010       1.49719976E-03
 -0.330000013       6.43638254E-04
 -0.294999987       3.64585686E-03
 -0.259999990       1.89706851E-02
 -0.224999994       5.60134538E-02
 -0.189999998      0.125702038
 -0.155000001      0.242210552
 -0.119999997      0.417121440
  -8.50000009E-02  0.650356591
  -5.00000007E-02  0.921678782
  -1.49999997E-02   1.17848063
   1.99999996E-02   1.32690990
   5.49999997E-02   1.24045861
   9.00000036E-02  0.787541807
  0.125000000     -0.123351447
  0.159999996      -1.48362672
  0.194999993      -3.13663793
  0.230000004      -4.77846384
  0.264999986      -6.01412010
  0.300000012      -6.45529175
  0.335000008      -5.84008121
  0.370000005      -4.12877893
  0.405000001      -1.52267671
  0.439999998       1.59619474
  0.474999994       4.76360321
  0.509999990       7.53353262
  0.545000017       9.54906750
  0.579999983       10.5610600
  0.615000010       10.4155321
  0.649999976       9.05498981
  0.685000002       6.54529762
  0.720000029       3.10910344
  0.754999995     -0.855225801
  0.790000021      -4.79987621
  0.824999988      -8.12204456
  0.860000014      -10.3023405
  0.894999981      -11.0316744
  0.930000007      -10.2842693
  0.964999974      -8.31004906
   1.00000000      -5.54341745
   1.03499997      -2.47010112
   1.07000005      0.484317750
   1.10500002       3.00894690
   1.13999999       4.90288830
   1.17499995       6.03636217
   1.21000004       6.32639456
   1.24500000       5.76187134
   1.27999997       4.45865679
   1.31500006       2.68903995
   1.35000002      0.841863930
   1.38499999     -0.691342831
   1.41999996      -1.65765667
   1.45500004      -2.02929878
   1.49000001      -1.97527874
   1.52499998      -1.73343420
   1.55999994      -1.46549261
   1.59500003      -1.18723214
   1.63000000     -0.816136897
