 -0.800000012       0.00000000
 -0.788999975       0.00000000
 -0.777999997       0.00000000
 -0.767000020       2.34295475E-24
 -0.755999982      -2.37337927E-09
 -0.745000005       1.61121889E-08
 -0.734000027      -7.37000576E-08
 -0.722999990       2.05184051E-07
 -0.712000012      -1.98596197E-07
 -0.700999975      -5.40969495E-07
 -0.689999998       1.90790729E-06
 -0.679000020      -1.31481158E-06
 -0.667999983      -4.23616348E-06
 -0.657000005       9.61329806E-06
 -0.646000028       4.30894005E-07
 -0.634999990      -2.46371947E-05
 -0.624000013       1.98063644E-05
 -0.612999976       3.44677355E-05
 -0.601999998      -5.22407099E-05
 -0.591000021      -1.70611129E-05
 -0.579999983       4.59849834E-05
 -0.569000006      -3.78550139E-05
 -0.558000028       1.19770782E-04
 -0.546999991       1.01745456E-04
 -0.536000013      -6.07279886E-04
 -0.524999976      -1.15949202E-04
 -0.513999999       1.49546168E-03
 -0.503000021       5.52590900E-05
 -0.492000014      -2.56109214E-03
 -0.481000006       2.95882801E-05
 -0.469999999       3.10024130E-03
 -0.458999991      -1.42325269E-04
 -0.448000014      -2.10990710E-03
 -0.437000006       6.25517161E-04
 -0.425999999      -8.72454664E-04
 -0.414999992      -2.08544312E-03
 -0.404000014       4.70292009E-03
 -0.393000007       4.36611380E-03
 -0.381999999      -7.01075094E-03
 -0.370999992      -5.74714597E-03
 -0.360000014       6.65858947E-03
 -0.349000007       5.13269845E-03
 -0.338000000      -3.93133191E-03
 -0.326999992      -3.87949008E-03
 -0.316000015      -2.75916723E-03
 -0.305000007      -8.90910451E-04
 -0.294000000       5.72650041E-03
 -0.282999992      -9.17435274E-04
 -0.272000015      -1.41896112E-02
 -0.261000007      -2.67049507E-03
 -0.250000000       1.17146550E-02
 -0.238999993      -7.33586121E-03
 -0.228000000      -2.53067184E-02
 -0.216999993      -1.17427520E-02
 -0.206000000      -3.81572591E-03
 -0.194999993      -1.62596535E-02
 -0.184000000      -2.31145322E-02
 -0.172999993      -3.39171663E-02
 -0.162000000      -5.68446219E-02
 -0.150999993      -5.95476292E-02
 -0.140000001      -5.10247126E-02
 -0.128999993      -7.64468759E-02
 -0.118000001     -0.119338579
 -0.107000001     -0.142640904
  -9.60000008E-02 -0.165330172
  -8.50000009E-02 -0.203126892
  -7.40000010E-02 -0.241545260
  -6.30000010E-02 -0.292644918
  -5.20000011E-02 -0.364704549
  -4.10000011E-02 -0.427236259
  -2.99999993E-02 -0.483395755
  -1.89999994E-02 -0.569605887
  -8.00000038E-03 -0.670581341
   3.00000003E-03 -0.756617844
   1.40000004E-02 -0.847410023
   2.50000004E-02 -0.949386775
   3.59999985E-02  -1.03961730
   4.69999984E-02  -1.13257051
   5.79999983E-02  -1.23790073
   6.89999983E-02  -1.31086850
   7.99999982E-02  -1.34048069
   9.09999982E-02  -1.36750984
  0.101999998      -1.38271582
  0.112999998      -1.34524679
  0.123999998      -1.26052618
  0.135000005      -1.13308775
  0.145999998     -0.940051734
  0.157000005     -0.690782189
  0.167999998     -0.400879413
  0.179000005      -4.30923514E-02
  0.189999998      0.391453177
  0.201000005      0.871737421
  0.211999997       1.39375591
  0.223000005       1.96746969
  0.233999997       2.56737161
  0.245000005       3.17277169
  0.256000012       3.78852320
  0.266999990       4.39444923
  0.277999997       4.95163155
  0.289000005       5.44860268
  0.300000012       5.88131762
  0.310999990       6.22399378
  0.321999997       6.45694113
  0.333000004       6.57903290
  0.344000012       6.57834435
  0.354999989       6.43526554
  0.365999997       6.15586996
  0.377000004       5.75864220
  0.388000011       5.24211168
  0.398999989       4.60790968
  0.409999996       3.88319111
  0.421000004       3.08391261
  0.432000011       2.20911431
  0.442999989       1.28519356
  0.453999996      0.346942902
  0.465000004     -0.602510750
  0.476000011      -1.55863035
  0.486999989      -2.49955058
  0.497999996      -3.42469835
  0.509000003      -4.33840227
  0.519999981      -5.22193909
  0.531000018      -6.07374907
  0.541999996      -6.91609383
  0.552999973      -7.74640703
  0.564000010      -8.54977512
  0.574999988      -9.33148956
  0.586000025      -10.0897312
  0.597000003      -10.8057766
  0.607999980      -11.4664927
  0.619000018      -12.0547562
  0.629999995      -12.5365019
  0.640999973      -12.8785744
  0.652000010      -13.0491438
  0.662999988      -13.0137157
  0.674000025      -12.7439175
  0.685000002      -12.2107887
  0.695999980      -11.3824644
  0.707000017      -10.2419510
  0.717999995      -8.78942585
  0.728999972      -7.03469372
  0.740000010      -5.00245190
  0.750999987      -2.72941232
  0.762000024     -0.258163691
  0.773000002       2.35206676
  0.783999979       5.02686882
  0.795000017       7.68734980
  0.805999994       10.2475996
  0.816999972       12.6215057
  0.828000009       14.7355871
  0.838999987       16.5199032
  0.850000024       17.9076443
  0.861000001       18.8502617
  0.871999979       19.3156872
  0.883000016       19.2872620
  0.893999994       18.7725945
  0.904999971       17.7974014
  0.916000009       16.3975067
  0.926999986       14.6226425
  0.938000023       12.5352507
  0.949000001       10.2155981
  0.959999979       7.75737381
  0.971000016       5.24109697
  0.981999993       2.73215199
  0.992999971      0.310290158
   1.00399995      -1.94631934
   1.01499999      -3.98687720
   1.02600002      -5.76285124
   1.03699994      -7.22904396
   1.04799998      -8.37737656
   1.05900002      -9.21131802
   1.07000005      -9.72122669
   1.08099997      -9.92193031
   1.09200001      -9.85190487
   1.10300004      -9.53548431
   1.11399996      -9.00641823
   1.12500000      -8.31978798
   1.13600004      -7.51058435
   1.14699996      -6.60489750
   1.15799999      -5.65480423
   1.16900003      -4.70400858
   1.17999995      -3.77027321
   1.19099998      -2.88224959
   1.20200002      -2.06817365
   1.21300006      -1.32676351
   1.22399998     -0.662062526
   1.23500001      -9.83314365E-02
   1.24600005      0.360749900
   1.25699997      0.731339693
   1.26800001       1.01765251
   1.27900004       1.22356713
   1.28999996       1.36376512
   1.30100000       1.44467807
   1.31200004       1.47054136
   1.32299995       1.45803750
   1.33399999       1.41671002
   1.34500003       1.34434211
   1.35599995       1.25202429
   1.36699998       1.15565884
   1.37800002       1.05274189
   1.38900006      0.942534149
