 -0.800000012       0.00000000
 -0.788999975       0.00000000
 -0.777999997       0.00000000
 -0.767000020       0.00000000
 -0.755999982      -3.30543904E-12
 -0.745000005      -7.23186233E-11
 -0.734000027       5.49395751E-10
 -0.722999990      -1.30755662E-09
 -0.712000012      -7.47664042E-10
 -0.700999975       9.16009757E-09
 -0.689999998      -1.08182237E-08
 -0.679000020      -2.31805721E-08
 -0.667999983       6.38031352E-08
 -0.657000005       1.15892096E-08
 -0.646000028      -1.88275848E-07
 -0.634999990       1.08340906E-07
 -0.624000013       3.55797425E-07
 -0.612999976      -4.23419579E-07
 -0.601999998      -4.04386981E-07
 -0.591000021       8.62442050E-07
 -0.579999983       4.14145029E-09
 -0.569000006      -9.86834721E-07
 -0.558000028       1.28847523E-06
 -0.546999991       1.05406039E-08
 -0.536000013      -3.82213193E-06
 -0.524999976       2.58965315E-06
 -0.513999999       7.26237477E-06
 -0.503000021      -6.05056948E-06
 -0.492000014      -9.46762884E-06
 -0.481000006       8.26457836E-06
 -0.469999999       5.91093612E-06
 -0.458999991      -8.16281499E-06
 -0.448000014       7.34564674E-06
 -0.437000006       8.28853535E-06
 -0.425999999      -2.62977810E-05
 -0.414999992      -1.09482417E-05
 -0.404000014       3.61385501E-05
 -0.393000007       8.55526923E-06
 -0.381999999      -2.53604321E-05
 -0.370999992       1.23590326E-05
 -0.360000014       2.79015171E-06
 -0.349000007      -4.56531125E-05
 -0.338000000       1.98000453E-05
 -0.326999992       6.90836896E-05
 -0.316000015      -4.59053081E-05
 -0.305000007      -8.76193153E-05
 -0.294000000       2.76312749E-05
 -0.282999992       1.78359787E-05
 -0.272000015      -7.34357891E-05
 -0.261000007      -2.99727913E-06
 -0.250000000       2.68586318E-05
 -0.238999993      -1.26150466E-04
 -0.228000000      -1.42565652E-04
 -0.216999993      -1.17232839E-05
 -0.206000000      -6.94059272E-05
 -0.194999993      -2.10827522E-04
 -0.184000000      -2.14128027E-04
 -0.172999993      -2.62621877E-04
 -0.162000000      -3.94182309E-04
 -0.150999993      -4.28446248E-04
 -0.140000001      -5.17449575E-04
 -0.128999993      -7.65497447E-04
 -0.118000001      -9.18677775E-04
 -0.107000001      -1.02570630E-03
  -9.60000008E-02  -1.35528878E-03
  -8.50000009E-02  -1.71609828E-03
  -7.40000010E-02  -1.91833521E-03
  -6.30000010E-02  -2.22585513E-03
  -5.20000011E-02  -2.68885773E-03
  -4.10000011E-02  -3.06089921E-03
  -2.99999993E-02  -3.42779560E-03
  -1.89999994E-02  -3.92203918E-03
  -8.00000038E-03  -4.31036577E-03
   3.00000003E-03  -4.50067921E-03
   1.40000004E-02  -4.68280911E-03
   2.50000004E-02  -4.80133668E-03
   3.59999985E-02  -4.61082859E-03
   4.69999984E-02  -4.06414783E-03
   5.79999983E-02  -3.18870018E-03
   6.89999983E-02  -1.85791787E-03
   7.99999982E-02   1.38038697E-04
   9.09999982E-02   2.92659807E-03
  0.101999998       6.50745118E-03
  0.112999998       1.09517816E-02
  0.123999998       1.64840277E-02
  0.135000005       2.31679082E-02
  0.145999998       3.08970008E-02
  0.157000005       3.97650711E-02
  0.167999998       4.98535298E-02
  0.179000005       6.08671121E-02
  0.189999998       7.25346655E-02
  0.201000005       8.47904831E-02
  0.211999997       9.72327515E-02
  0.223000005      0.109144576
  0.233999997      0.119963214
  0.245000005      0.129052088
  0.256000012      0.135430202
  0.266999990      0.138066232
  0.277999997      0.135889053
  0.289000005      0.127611950
  0.300000012      0.111991704
  0.310999990       8.78697038E-02
  0.321999997       5.38930632E-02
  0.333000004       8.75041727E-03
  0.344000012      -4.85333912E-02
  0.354999989     -0.118833482
  0.365999997     -0.202875957
  0.377000004     -0.300842077
  0.388000011     -0.412516803
  0.398999989     -0.537495911
  0.409999996     -0.674723327
  0.421000004     -0.822209477
  0.432000011     -0.977413535
  0.442999989      -1.13737249
  0.453999996      -1.29833603
  0.465000004      -1.45569491
  0.476000011      -1.60428035
  0.486999989      -1.73842955
  0.497999996      -1.85189593
  0.509000003      -1.93810415
  0.519999981      -1.99051750
  0.531000018      -2.00267053
  0.541999996      -1.96825683
  0.552999973      -1.88162768
  0.564000010      -1.73817313
  0.574999988      -1.53442574
  0.586000025      -1.26838088
  0.597000003     -0.939860582
  0.607999980     -0.550572336
  0.619000018     -0.104341380
  0.629999995      0.392513663
  0.640999973      0.931338847
  0.652000010       1.50145268
  0.662999988       2.09004879
  0.674000025       2.68238139
  0.685000002       3.26245260
  0.695999980       3.81337309
  0.707000017       4.31763983
  0.717999995       4.75802088
  0.728999972       5.11839151
  0.740000010       5.38410950
  0.750999987       5.54265928
  0.762000024       5.58448458
  0.773000002       5.50335360
  0.783999979       5.29660892
  0.795000017       4.96561670
  0.805999994       4.51587439
  0.816999972       3.95677805
  0.828000009       3.30150390
  0.838999987       2.56662130
  0.850000024       1.77128637
  0.861000001      0.936656892
  0.871999979       8.54056627E-02
  0.883000016     -0.759342253
  0.893999994      -1.57519507
  0.904999971      -2.34099722
  0.916000009      -3.03726959
  0.926999986      -3.64724660
  0.938000023      -4.15767002
  0.949000001      -4.55882931
  0.959999979      -4.84466267
  0.971000016      -5.01314545
  0.981999993      -5.06614494
  0.992999971      -5.00882578
   1.00399995      -4.84940577
   1.01499999      -4.59900808
   1.02600002      -4.27086020
   1.03699994      -3.87933016
   1.04799998      -3.43956065
   1.05900002      -2.96721315
   1.07000005      -2.47762513
   1.08099997      -1.98493540
   1.09200001      -1.50187743
   1.10300004      -1.03978634
   1.11399996     -0.608235538
   1.12500000     -0.214672089
   1.13600004      0.135528967
   1.14699996      0.438878119
   1.15799999      0.693715274
   1.16900003      0.900124252
   1.17999995       1.05969250
   1.19099998       1.17516541
   1.20200002       1.25011039
   1.21300006       1.28874409
   1.22399998       1.29581130
   1.23500001       1.27625263
   1.24600005       1.23489368
   1.25699997       1.17643571
   1.26800001       1.10537183
   1.27900004       1.02567089
   1.28999996      0.940745413
   1.30100000      0.853639841
   1.31200004      0.766882539
   1.32299995      0.682326674
   1.33399999      0.601440847
   1.34500003      0.525483727
   1.35599995      0.455268890
   1.36699998      0.391139477
   1.37800002      0.333213687
   1.38900006      0.281416476
