 -0.959999979       0.00000000
 -0.925000012       3.01245218E-05
 -0.889999986       1.59863732E-04
 -0.855000019       3.17388418E-04
 -0.819999993       4.76970163E-04
 -0.785000026       1.12739229E-03
 -0.750000000       2.72706291E-03
 -0.714999974       5.33465995E-03
 -0.680000007       9.81743075E-03
 -0.644999981       1.79774985E-02
 -0.610000014       3.09902653E-02
 -0.574999988       4.96899113E-02
 -0.540000021       7.53403082E-02
 -0.504999995      0.107177652
 -0.469999999      0.140262425
 -0.435000002      0.166644186
 -0.400000006      0.175569162
 -0.365000010      0.153123751
 -0.330000013       8.72235298E-02
 -0.294999987      -2.46604886E-02
 -0.259999990     -0.171253622
 -0.224999994     -0.325292110
 -0.189999998     -0.444920510
 -0.155000001     -0.486645818
 -0.119999997     -0.426842779
  -8.50000009E-02 -0.279542387
  -5.00000007E-02 -0.105492122
  -1.49999997E-02  -7.49349548E-03
   1.99999996E-02 -0.100861415
   5.49999997E-02 -0.462686598
   9.00000036E-02  -1.08294761
  0.125000000      -1.83627605
  0.159999996      -2.48651814
  0.194999993      -2.73872590
  0.230000004      -2.33467484
  0.264999986      -1.15639222
  0.300000012      0.702157617
  0.335000008       2.92175484
  0.370000005       5.02122974
  0.405000001       6.49106550
  0.439999998       6.95032263
  0.474999994       6.26633549
  0.509999990       4.59486532
  0.545000017       2.32270360
  0.579999983      -6.89034760E-02
  0.615000010      -2.15856171
  0.649999976      -3.68948269
  0.685000002      -4.59255600
  0.720000029      -4.93325233
  0.754999995      -4.81947088
  0.790000021      -4.32981491
  0.824999988      -3.50388694
  0.860000014      -2.38528061
  0.894999981      -1.07640445
  0.930000007      0.235182583
  0.964999974       1.30669689
   1.00000000       1.92427933
   1.03499997       1.99757183
   1.07000005       1.60826576
   1.10500002      0.984199822
   1.13999999      0.407470137
   1.17499995       9.43281874E-02
   1.21000004      0.104359336
   1.24500000      0.327130497
   1.27999997      0.551919401
   1.31500006      0.582969427
   1.35000002      0.343703717
   1.38499999      -8.24839696E-02
   1.41999996     -0.497835249
   1.45500004     -0.696245849
   1.49000001     -0.570412517
   1.52499998     -0.167315319
   1.55999994      0.332119137
   1.59500003      0.700813115
   1.63000000      0.777445793
