 -0.800000012       0.00000000
 -0.788999975       0.00000000
 -0.777999997       0.00000000
 -0.767000020       0.00000000
 -0.755999982       4.53596022E-27
 -0.745000005       2.87178891E-13
 -0.734000027      -1.37521700E-12
 -0.722999990       5.88009415E-12
 -0.712000012      -1.16918662E-11
 -0.700999975      -5.23368198E-12
 -0.689999998       6.66817990E-11
 -0.679000020      -9.22595264E-11
 -0.667999983      -9.21085777E-11
 -0.657000005       4.20618151E-10
 -0.646000028      -2.29864433E-10
 -0.634999990      -9.32485089E-10
 -0.624000013       1.34599532E-09
 -0.612999976       1.22790511E-09
 -0.601999998      -3.06078229E-09
 -0.591000021      -1.02833952E-09
 -0.579999983       3.06849501E-09
 -0.569000006       1.60114222E-09
 -0.558000028       4.71424721E-09
 -0.546999991      -6.66490019E-09
 -0.536000013      -3.03552454E-08
 -0.524999976       1.94352534E-08
 -0.513999999       8.32555997E-08
 -0.503000021      -3.38749153E-08
 -0.492000014      -1.57691730E-07
 -0.481000006       2.83836137E-08
 -0.469999999       2.10878696E-07
 -0.458999991       1.82445206E-08
 -0.448000014      -1.57168202E-07
 -0.437000006      -7.72819391E-08
 -0.425999999      -7.30834344E-08
 -0.414999992       3.66818576E-08
 -0.404000014       3.98786085E-07
 -0.393000007       1.91837444E-07
 -0.381999999      -5.43411716E-07
 -0.370999992      -4.30360899E-07
 -0.360000014       3.78095706E-07
 -0.349000007       3.80865572E-07
 -0.338000000      -2.37422782E-07
 -0.326999992      -3.80025114E-07
 -0.316000015      -5.32067403E-08
 -0.305000007       6.07476863E-07
 -0.294000000       1.37595600E-06
 -0.282999992       1.45152876E-06
 -0.272000015       1.63812149E-06
 -0.261000007       3.54163967E-06
 -0.250000000       5.76827097E-06
 -0.238999993       6.57747114E-06
 -0.228000000       8.27432723E-06
 -0.216999993       1.30332273E-05
 -0.206000000       1.92129992E-05
 -0.194999993       2.58545460E-05
 -0.184000000       3.44635118E-05
 -0.172999993       4.58693248E-05
 -0.162000000       6.13790544E-05
 -0.150999993       8.37668413E-05
 -0.140000001       1.13359987E-04
 -0.128999993       1.49127489E-04
 -0.118000001       1.94145017E-04
 -0.107000001       2.53602077E-04
  -9.60000008E-02   3.30318697E-04
  -8.50000009E-02   4.27040359E-04
  -7.40000010E-02   5.48340438E-04
  -6.30000010E-02   6.98868069E-04
  -5.20000011E-02   8.84805631E-04
  -4.10000011E-02   1.11487112E-03
  -2.99999993E-02   1.39663171E-03
  -1.89999994E-02   1.73688494E-03
  -8.00000038E-03   2.14606174E-03
   3.00000003E-03   2.63637770E-03
   1.40000004E-02   3.21824360E-03
   2.50000004E-02   3.90264578E-03
   3.59999985E-02   4.70192265E-03
   4.69999984E-02   5.62699512E-03
   5.79999983E-02   6.68911031E-03
   6.89999983E-02   7.90101103E-03
   7.99999982E-02   9.27152392E-03
   9.09999982E-02   1.08042369E-02
  0.101999998       1.25024198E-02
  0.112999998       1.43679064E-02
  0.123999998       1.63961686E-02
  0.135000005       1.85769554E-02
  0.145999998       2.08948497E-02
  0.157000005       2.33264938E-02
  0.167999998       2.58417204E-02
  0.179000005       2.84054447E-02
  0.189999998       3.09743769E-02
  0.201000005       3.34959440E-02
  0.211999997       3.59120369E-02
  0.223000005       3.81595008E-02
  0.233999997       4.01689000E-02
  0.245000005       4.18676436E-02
  0.256000012       4.31824699E-02
  0.266999990       4.40388918E-02
  0.277999997       4.43635806E-02
  0.289000005       4.40891124E-02
  0.300000012       4.31553684E-02
  0.310999990       4.15100120E-02
  0.321999997       3.91115546E-02
  0.333000004       3.59317772E-02
  0.344000012       3.19559164E-02
  0.354999989       2.71840934E-02
  0.365999997       2.16336325E-02
  0.377000004       1.53383277E-02
  0.388000011       8.34619440E-03
  0.398999989       7.19721837E-04
  0.409999996      -7.46429618E-03
  0.421000004      -1.61181279E-02
  0.432000011      -2.51450781E-02
  0.442999989      -3.44393738E-02
  0.453999996      -4.38892245E-02
  0.465000004      -5.33810593E-02
  0.476000011      -6.27999529E-02
  0.486999989      -7.20302314E-02
  0.497999996      -8.09580535E-02
  0.509000003      -8.94715041E-02
  0.519999981      -9.74600017E-02
  0.531000018     -0.104816653
  0.541999996     -0.111438431
  0.552999973     -0.117223404
  0.564000010     -0.122070998
  0.574999988     -0.125883996
  0.586000025     -0.128567919
  0.597000003     -0.130031034
  0.607999980     -0.130186662
  0.619000018     -0.128954783
  0.629999995     -0.126264229
  0.640999973     -0.122056812
  0.652000010     -0.116291150
  0.662999988     -0.108946577
  0.674000025     -0.100027315
  0.685000002      -8.95659700E-02
  0.695999980      -7.76270106E-02
  0.707000017      -6.43107668E-02
  0.717999995      -4.97554019E-02
  0.728999972      -3.41366120E-02
  0.740000010      -1.76665764E-02
  0.750999987      -5.91163232E-04
  0.762000024       1.68145206E-02
  0.773000002       3.42514291E-02
  0.783999979       5.14037386E-02
  0.795000017       6.79477677E-02
  0.805999994       8.35616440E-02
  0.816999972       9.79356468E-02
  0.828000009      0.110782452
  0.838999987      0.121846147
  0.850000024      0.130910859
  0.861000001      0.137808770
  0.871999979      0.142425910
  0.883000016      0.144705877
  0.893999994      0.144652009
  0.904999971      0.142326653
  0.916000009      0.137847811
  0.926999986      0.131384894
  0.938000023      0.123152658
  0.949000001      0.113403633
  0.959999979      0.102418460
  0.971000016       9.04946551E-02
  0.981999993       7.79367909E-02
  0.992999971       6.50483817E-02
   1.00399995       5.21223322E-02
   1.01499999       3.94316986E-02
   1.02600002       2.72235032E-02
   1.03699994       1.57126710E-02
   1.04799998       5.07659651E-03
   1.05900002      -4.54582693E-03
   1.07000005      -1.30537180E-02
   1.08099997      -2.03853399E-02
   1.09200001      -2.65163947E-02
   1.10300004      -3.14554274E-02
   1.11399996      -3.52407210E-02
   1.12500000      -3.79361585E-02
   1.13600004      -3.96247618E-02
   1.14699996      -4.04045694E-02
   1.15799999      -4.03853320E-02
   1.16900003      -3.96819934E-02
   1.17999995      -3.84094268E-02
   1.19099998      -3.66805121E-02
   1.20200002      -3.46027911E-02
   1.21300006      -3.22748944E-02
   1.22399998      -2.97865625E-02
   1.23500001      -2.72181407E-02
   1.24600005      -2.46377457E-02
   1.25699997      -2.21009403E-02
   1.26800001      -1.96526013E-02
   1.27900004      -1.73274036E-02
   1.28999996      -1.51503142E-02
   1.30100000      -1.31382952E-02
   1.31200004      -1.13010462E-02
   1.32299995      -9.64167435E-03
   1.33399999      -8.15875083E-03
   1.34500003      -6.84728473E-03
   1.35599995      -5.69845457E-03
   1.36699998      -4.70112963E-03
   1.37800002      -3.84370284E-03
   1.38900006      -3.11365072E-03
