 -0.800000012       0.00000000
 -0.788999975      -8.21004796E-05
 -0.777999997      -2.39140820E-04
 -0.767000020       6.37801641E-05
 -0.755999982       6.12211763E-04
 -0.745000005      -1.11706004E-05
 -0.734000027      -9.93034104E-04
 -0.722999990      -1.57293311E-04
 -0.712000012       8.37228494E-04
 -0.700999975      -1.90055289E-04
 -0.689999998      -9.45994747E-04
 -0.679000020      -1.30354776E-04
 -0.667999983       8.07378456E-05
 -0.657000005      -4.28780302E-04
 -0.646000028      -7.95911707E-04
 -0.634999990      -1.74094434E-03
 -0.624000013      -2.05967389E-03
 -0.612999976      -1.26627146E-03
 -0.601999998      -2.48900172E-03
 -0.591000021      -4.88052750E-03
 -0.579999983      -4.87913471E-03
 -0.569000006      -5.61099639E-03
 -0.558000028      -9.36367549E-03
 -0.546999991      -1.11985058E-02
 -0.536000013      -1.20855989E-02
 -0.524999976      -1.81865618E-02
 -0.513999999      -2.57640108E-02
 -0.503000021      -3.02762408E-02
 -0.492000014      -3.81341130E-02
 -0.481000006      -5.14587425E-02
 -0.469999999      -6.41356409E-02
 -0.458999991      -7.85863623E-02
 -0.448000014     -0.100961596
 -0.437000006     -0.128374904
 -0.425999999     -0.159430414
 -0.414999992     -0.198657036
 -0.404000014     -0.245584995
 -0.393000007     -0.299804151
 -0.381999999     -0.367273688
 -0.370999992     -0.448703021
 -0.360000014     -0.540740430
 -0.349000007     -0.648323059
 -0.338000000     -0.775719047
 -0.326999992     -0.918841720
 -0.316000015      -1.07901227
 -0.305000007      -1.26249540
 -0.294000000      -1.46599150
 -0.282999992      -1.68466699
 -0.272000015      -1.92252600
 -0.261000007      -2.17926979
 -0.250000000      -2.44611835
 -0.238999993      -2.71907496
 -0.228000000      -2.99612761
 -0.216999993      -3.26735950
 -0.206000000      -3.52239513
 -0.194999993      -3.75440788
 -0.184000000      -3.95133734
 -0.172999993      -4.09823656
 -0.162000000      -4.18448925
 -0.150999993      -4.19714308
 -0.140000001      -4.11843204
 -0.128999993      -3.93564987
 -0.118000001      -3.64012265
 -0.107000001      -3.21937776
  -9.60000008E-02  -2.66337633
  -8.50000009E-02  -1.96995854
  -7.40000010E-02  -1.13728595
  -6.30000010E-02 -0.164748177
  -5.20000011E-02  0.937728703
  -4.10000011E-02   2.15427947
  -2.99999993E-02   3.46997046
  -1.89999994E-02   4.86324978
  -8.00000038E-03   6.30321789
   3.00000003E-03   7.75778103
   1.40000004E-02   9.19222069
   2.50000004E-02   10.5649204
   3.59999985E-02   11.8351231
   4.69999984E-02   12.9653435
   5.79999983E-02   13.9144487
   6.89999983E-02   14.6426973
   7.99999982E-02   15.1198158
   9.09999982E-02   15.3192472
  0.101999998       15.2175350
  0.112999998       14.8040438
  0.123999998       14.0779963
  0.135000005       13.0417452
  0.145999998       11.7090731
  0.157000005       10.1082010
  0.167999998       8.27184200
  0.179000005       6.23822117
  0.189999998       4.05678082
  0.201000005       1.78022218
  0.211999997     -0.539456367
  0.223000005      -2.84423184
  0.233999997      -5.07495356
  0.245000005      -7.18081093
  0.256000012      -9.11442852
  0.266999990      -10.8296785
  0.277999997      -12.2909021
  0.289000005      -13.4724703
  0.300000012      -14.3528967
  0.310999990      -14.9214039
  0.321999997      -15.1815071
  0.333000004      -15.1418180
  0.344000012      -14.8152094
  0.354999989      -14.2262535
  0.365999997      -13.4068632
  0.377000004      -12.3896227
  0.388000011      -11.2121563
  0.398999989      -9.91658688
  0.409999996      -8.54096794
  0.421000004      -7.12124395
  0.432000011      -5.69668961
  0.442999989      -4.30261040
  0.453999996      -2.96565866
  0.465000004      -1.71090031
  0.476000011     -0.560868859
  0.486999989      0.471874237
  0.497999996       1.37896538
  0.509000003       2.15045881
  0.519999981       2.78423595
  0.531000018       3.28807259
  0.541999996       3.66775751
  0.552999973       3.92778492
  0.564000010       4.08030844
  0.574999988       4.13910961
  0.586000025       4.11365891
  0.597000003       4.01714706
  0.607999980       3.86633539
  0.619000018       3.67187500
  0.629999995       3.44194508
  0.640999973       3.18907189
  0.652000010       2.92383456
  0.662999988       2.65255070
  0.674000025       2.38343477
  0.685000002       2.12322402
  0.695999980       1.87281275
  0.707000017       1.63512588
  0.717999995       1.41672051
  0.728999972       1.21845138
  0.740000010       1.03760743
  0.750999987      0.876181841
  0.762000024      0.735510111
  0.773000002      0.611491680
  0.783999979      0.502785385
  0.795000017      0.411999047
  0.805999994      0.336654216
  0.816999972      0.271331578
  0.828000009      0.215870976
  0.838999987      0.171369553
  0.850000024      0.134990424
  0.861000001      0.104940630
  0.871999979       8.17543492E-02
  0.883000016       6.32861331E-02
  0.893999994       4.70730774E-02
  0.904999971       3.44755203E-02
  0.916000009       2.61442568E-02
  0.926999986       1.98538397E-02
  0.938000023       1.52723733E-02
  0.949000001       1.30888540E-02
  0.959999979       1.14219999E-02
  0.971000016       9.81863867E-03
  0.981999993       1.07853897E-02
  0.992999971       1.35485716E-02
   1.00399995       1.46346381E-02
   1.01499999       1.45236375E-02
   1.02600002       1.54177714E-02
   1.03699994       1.62609238E-02
   1.04799998       1.60888415E-02
   1.05900002       1.60743035E-02
   1.07000005       1.56053305E-02
   1.08099997       1.30396783E-02
   1.09200001       9.54826176E-03
   1.10300004       6.89666765E-03
   1.11399996       4.51944070E-03
   1.12500000       1.63081440E-03
   1.13600004      -1.48722285E-03
   1.14699996      -4.62563615E-03
   1.15799999      -7.29738921E-03
   1.16900003      -8.72800313E-03
   1.17999995      -9.33869649E-03
   1.19099998      -1.01528838E-02
   1.20200002      -1.10902525E-02
   1.21300006      -1.15277264E-02
   1.22399998      -1.13150151E-02
   1.23500001      -1.04024792E-02
   1.24600005      -8.88924394E-03
   1.25699997      -7.56809674E-03
   1.26800001      -7.16083497E-03
   1.27900004      -7.09513575E-03
   1.28999996      -6.12822920E-03
   1.30100000      -4.23787907E-03
   1.31200004      -2.67595076E-03
   1.32299995      -1.88657898E-03
   1.33399999      -9.65844956E-04
   1.34500003       5.68987336E-04
   1.35599995       2.36319378E-03
   1.36699998       4.36667167E-03
   1.37800002       6.46330044E-03
   1.38900006       7.85125513E-03
