 -0.959999979       0.00000000
 -0.925000012       5.26133592E-20
 -0.889999986       8.27487625E-22
 -0.855000019      -1.57757297E-11
 -0.819999993      -5.99297348E-11
 -0.785000026       2.18992810E-10
 -0.750000000       6.92145230E-11
 -0.714999974       1.40684542E-09
 -0.680000007      -1.10710534E-08
 -0.644999981       1.83557027E-08
 -0.610000014      -6.09647621E-09
 -0.574999988       1.50706310E-08
 -0.540000021      -4.08872474E-08
 -0.504999995      -5.42331122E-08
 -0.469999999       1.25699771E-07
 -0.435000002       1.66038792E-08
 -0.400000006      -2.66358711E-07
 -0.365000010       8.49708783E-07
 -0.330000013      -1.47597723E-06
 -0.294999987       1.22276742E-06
 -0.259999990       6.12060148E-07
 -0.224999994      -3.27364569E-06
 -0.189999998       1.30328729E-07
 -0.155000001       8.56578026E-06
 -0.119999997      -4.20428114E-06
  -8.50000009E-02  -1.22233250E-05
  -5.00000007E-02   1.05717982E-05
  -1.49999997E-02   8.77813090E-06
   1.99999996E-02  -1.35066020E-05
   5.49999997E-02   1.63217044E-06
   9.00000036E-02   8.91084164E-06
  0.125000000      -1.13843698E-05
  0.159999996       9.95280971E-07
  0.194999993       9.80002915E-06
  0.230000004      -6.95302924E-06
  0.264999986       9.15920100E-06
  0.300000012      -1.27372023E-05
  0.335000008      -3.09478673E-05
  0.370000005       4.20892466E-05
  0.405000001       5.17605949E-05
  0.439999998      -4.55300105E-05
  0.474999994      -5.27780358E-05
  0.509999990       4.81619645E-06
  0.545000017       2.71883328E-05
  0.579999983       5.20527574E-05
  0.615000010       2.20811708E-05
  0.649999976      -7.61045740E-05
  0.685000002      -7.03996702E-05
  0.720000029       2.98046216E-05
  0.754999995       5.37497326E-05
  0.790000021       4.83910517E-05
  0.824999988      -6.61764852E-06
  0.860000014      -4.49856670E-05
  0.894999981      -2.03181226E-05
  0.930000007      -5.64865195E-06
  0.964999974      -1.34415059E-05
   1.00000000       4.90383645E-05
   1.03499997       7.18853044E-05
   1.07000005      -5.47701093E-05
   1.10500002      -8.49500939E-05
   1.13999999       1.44291425E-05
   1.17499995       1.91250092E-05
   1.21000004       1.60440413E-05
   1.24500000       6.70875525E-05
   1.27999997       1.44723226E-05
   1.31500006      -8.25479656E-05
   1.35000002      -3.33092648E-05
   1.38499999       2.40897843E-05
   1.41999996       1.48057907E-05
   1.45500004       2.03782583E-05
   1.49000001       8.32169007E-06
   1.52499998      -3.77386059E-05
   1.55999994      -2.47530970E-05
   1.59500003       2.73102614E-05
   1.63000000       4.46164304E-05
