 -0.959999979       0.00000000
 -0.925000012       0.00000000
 -0.889999986      -3.66674061E-36
 -0.855000019      -7.33348122E-36
 -0.819999993      -1.55555568E-13
 -0.785000026      -3.11111136E-13
 -0.750000000       4.66666636E-13
 -0.714999974       2.48888887E-12
 -0.680000007       7.77777853E-13
 -0.644999981      -5.91111144E-12
 -0.610000014      -2.64444521E-12
 -0.574999988       2.05333337E-11
 -0.540000021      -1.60222217E-11
 -0.504999995      -1.52133334E-10
 -0.469999999       3.03333574E-11
 -0.435000002       5.35111365E-11
 -0.400000006       3.15622251E-10
 -0.365000010       2.59155614E-10
 -0.330000013       6.80555612E-10
 -0.294999987       3.05511089E-10
 -0.259999990      -1.66242242E-09
 -0.224999994      -3.15248916E-09
 -0.189999998      -1.93464467E-09
 -0.155000001       6.53084431E-09
 -0.119999997       6.47437703E-09
  -8.50000009E-02  -1.33339126E-08
  -5.00000007E-02  -1.08417568E-08
  -1.49999997E-02   4.39351133E-09
   1.99999996E-02  -7.76890996E-09
   5.49999997E-02   4.28058122E-09
   9.00000036E-02   2.62059832E-08
  0.125000000       4.16765067E-09
  0.159999996      -5.76472603E-09
  0.194999993       2.35277877E-08
  0.230000004      -3.56796903E-09
  0.264999986      -4.72297685E-08
  0.300000012       1.55134163E-08
  0.335000008       6.86992649E-08
  0.370000005       9.74572956E-09
  0.405000001      -1.07395346E-08
  0.439999998       1.64822254E-08
  0.474999994      -3.02060634E-08
  0.509999990      -4.24879509E-08
  0.545000017       2.90161228E-08
  0.579999983      -3.33615979E-09
  0.615000010      -5.36084457E-08
  0.649999976       2.67461218E-08
  0.685000002       3.52613938E-08
  0.720000029       3.58122207E-08
  0.754999995       5.48405623E-08
  0.790000021       6.33040687E-09
  0.824999988      -7.21260633E-08
  0.860000014      -1.70984453E-08
  0.894999981       5.88756670E-08
  0.930000007      -4.80138773E-08
  0.964999974      -1.10302530E-07
   1.00000000      -8.77747486E-10
   1.03499997       3.78227654E-08
   1.07000005      -3.21117533E-08
   1.10500002       1.73805752E-08
   1.13999999       5.81120148E-08
   1.17499995      -3.87821579E-08
   1.21000004      -5.67884975E-08
   1.24500000      -3.37779476E-08
   1.27999997      -8.13323808E-08
   1.31500006      -1.76235204E-08
   1.35000002       1.32658855E-07
   1.38499999       9.16352718E-08
   1.41999996      -1.05552429E-08
   1.45500004       1.53225130E-08
   1.49000001      -1.01703996E-08
   1.52499998      -9.27683814E-08
   1.55999994      -3.04134673E-08
   1.59500003       4.11802006E-08
   1.63000000      -2.38960016E-08
