 -0.800000012       0.00000000
 -0.788999975       0.00000000
 -0.777999997       0.00000000
 -0.767000020       9.87461363E-11
 -0.755999982       4.80910346E-11
 -0.745000005       5.11505505E-09
 -0.734000027      -3.35024630E-08
 -0.722999990       1.04261645E-07
 -0.712000012      -2.23155538E-07
 -0.700999975       1.78493906E-07
 -0.689999998       9.40514099E-07
 -0.679000020      -3.23675181E-06
 -0.667999983       1.24091264E-06
 -0.657000005       1.12826119E-05
 -0.646000028      -1.71614120E-05
 -0.634999990      -1.77606689E-05
 -0.624000013       6.09782001E-05
 -0.612999976      -2.18269406E-06
 -0.601999998      -1.29966618E-04
 -0.591000021       8.58883795E-05
 -0.579999983       1.74986504E-04
 -0.569000006      -2.49443139E-04
 -0.558000028      -9.11855604E-05
 -0.546999991       4.39847325E-04
 -0.536000013      -2.28049204E-04
 -0.524999976      -5.13074279E-04
 -0.513999999       7.55405868E-04
 -0.503000021       2.62204092E-04
 -0.492000014      -1.18810812E-03
 -0.481000006       5.19620313E-04
 -0.469999999       1.00520323E-03
 -0.458999991      -1.90353021E-03
 -0.448000014       1.44712423E-04
 -0.437000006       3.48510663E-03
 -0.425999999      -2.08422751E-03
 -0.414999992      -4.06953366E-03
 -0.404000014       4.37064981E-03
 -0.393000007       2.33532232E-03
 -0.381999999      -6.54915627E-03
 -0.370999992       1.69498671E-03
 -0.360000014       7.25363754E-03
 -0.349000007      -7.21980119E-03
 -0.338000000      -5.17812977E-03
 -0.326999992       1.34330159E-02
 -0.316000015       2.65407329E-03
 -0.305000007      -1.34523856E-02
 -0.294000000       5.96997049E-03
 -0.282999992       1.37133189E-02
 -0.272000015      -9.15162638E-03
 -0.261000007      -2.17278628E-03
 -0.250000000       2.04372089E-02
 -0.238999993       2.51535652E-03
 -0.228000000      -7.93115236E-03
 -0.216999993       2.26399247E-02
 -0.206000000       2.53216680E-02
 -0.194999993       2.76193791E-03
 -0.184000000       2.41145026E-02
 -0.172999993       4.97953109E-02
 -0.162000000       3.37241441E-02
 -0.150999993       4.19398434E-02
 -0.140000001       8.38939697E-02
 -0.128999993       9.01129916E-02
 -0.118000001       9.16908681E-02
 -0.107000001      0.140347868
  -9.60000008E-02  0.178669229
  -8.50000009E-02  0.191867381
  -7.40000010E-02  0.244295329
  -6.30000010E-02  0.311631858
  -5.20000011E-02  0.348196566
  -4.10000011E-02  0.409729779
  -2.99999993E-02  0.508135438
  -1.89999994E-02  0.578190506
  -8.00000038E-03  0.646421731
   3.00000003E-03  0.760905266
   1.40000004E-02  0.861497581
   2.50000004E-02  0.932431042
   3.59999985E-02   1.04277682
   4.69999984E-02   1.16014171
   5.79999983E-02   1.21929657
   6.89999983E-02   1.28052115
   7.99999982E-02   1.36715031
   9.09999982E-02   1.38947570
  0.101999998       1.35720897
  0.112999998       1.34319746
  0.123999998       1.28183544
  0.135000005       1.11441827
  0.145999998      0.925706744
  0.157000005      0.723148465
  0.167999998      0.406655341
  0.179000005       9.86120012E-03
  0.189999998     -0.384704471
  0.201000005     -0.845918477
  0.211999997      -1.41216516
  0.223000005      -1.97989094
  0.233999997      -2.53966236
  0.245000005      -3.17314935
  0.256000012      -3.81761765
  0.266999990      -4.38279676
  0.277999997      -4.92980766
  0.289000005      -5.47111559
  0.300000012      -5.89516592
  0.310999990      -6.20352459
  0.321999997      -6.46539974
  0.333000004      -6.60651445
  0.344000012      -6.56413221
  0.354999989      -6.42117643
  0.365999997      -6.18589067
  0.377000004      -5.77183199
  0.388000011      -5.22394800
  0.398999989      -4.62055206
  0.409999996      -3.90330553
  0.421000004      -3.06076360
  0.432000011      -2.19620657
  0.442999989      -1.30928278
  0.453999996     -0.341818720
  0.465000004      0.634886265
  0.476000011       1.56084514
  0.486999989       2.50406528
  0.497999996       3.46545291
  0.509000003       4.36027956
  0.519999981       5.21584988
  0.531000018       6.09987450
  0.541999996       6.95688152
  0.552999973       7.74704552
  0.564000010       8.54165077
  0.574999988       9.35073280
  0.586000025       10.0944109
  0.597000003       10.7769642
  0.607999980       11.4470444
  0.619000018       12.0442867
  0.629999995       12.4969063
  0.640999973       12.8251390
  0.652000010       13.0187359
  0.662999988       12.9869852
  0.674000025       12.6997747
  0.685000002       12.1739683
  0.695999980       11.3610573
  0.707000017       10.2196016
  0.717999995       8.78037071
  0.728999972       7.05186701
  0.740000010       5.02238703
  0.750999987       2.75073957
  0.762000024      0.302076906
  0.773000002      -2.30401969
  0.783999979      -4.99119091
  0.795000017      -7.63523340
  0.805999994      -10.1818027
  0.816999972      -12.5840607
  0.828000009      -14.7166691
  0.838999987      -16.4878082
  0.850000024      -17.8866997
  0.861000001      -18.8647137
  0.871999979      -19.3365440
  0.883000016      -19.3008385
  0.893999994      -18.8088627
  0.904999971      -17.8543262
  0.916000009      -16.4366970
  0.926999986      -14.6497898
  0.938000023      -12.5852251
  0.949000001      -10.2721481
  0.959999979      -7.78364944
  0.971000016      -5.25229692
  0.981999993      -2.74926686
  0.992999971     -0.309084535
   1.00399995       1.96995294
   1.01499999       3.99902129
   1.02600002       5.77136183
   1.03699994       7.26580667
   1.04799998       8.42040825
   1.05900002       9.23645020
   1.07000005       9.75403118
   1.08099997       9.96599388
   1.09200001       9.87676907
   1.10300004       9.55204678
   1.11399996       9.03625774
   1.12500000       8.33565998
   1.13600004       7.50071716
   1.14699996       6.60471153
   1.15799999       5.66536808
   1.16900003       4.69145060
   1.17999995       3.74447751
   1.19099998       2.86580610
   1.20200002       2.03742218
   1.21300006       1.27340531
   1.22399998      0.623977900
   1.23500001       7.73558244E-02
   1.24600005     -0.400178611
   1.25699997     -0.777254760
   1.26800001      -1.04192567
   1.27900004      -1.24597466
   1.28999996      -1.39226198
   1.30100000      -1.44843280
   1.31200004      -1.45539534
   1.32299995      -1.45002568
   1.33399999      -1.39478707
   1.34500003      -1.29622519
   1.35599995      -1.21326518
   1.36699998      -1.12914824
   1.37800002      -1.00686538
   1.38900006     -0.892506301
