 -0.959999979       0.00000000
 -0.925000012       3.58331853E-08
 -0.889999986       3.69245612E-07
 -0.855000019       1.62208141E-06
 -0.819999993       4.11819747E-06
 -0.785000026       6.86675367E-06
 -0.750000000       1.07858696E-05
 -0.714999974       2.49234363E-05
 -0.680000007       6.03382032E-05
 -0.644999981       1.16289062E-04
 -0.610000014       1.91578292E-04
 -0.574999988       3.07888462E-04
 -0.540000021       4.91036626E-04
 -0.504999995       7.32501270E-04
 -0.469999999       9.95203271E-04
 -0.435000002       1.23009784E-03
 -0.400000006       1.35419623E-03
 -0.365000010       1.24724361E-03
 -0.330000013       7.96924927E-04
 -0.294999987      -7.11701068E-05
 -0.259999990      -1.37118169E-03
 -0.224999994      -2.99386191E-03
 -0.189999998      -4.67867218E-03
 -0.155000001      -6.07044855E-03
 -0.119999997      -6.73379377E-03
  -8.50000009E-02  -6.05646940E-03
  -5.00000007E-02  -3.14782793E-03
  -1.49999997E-02   3.18219420E-03
   1.99999996E-02   1.42453648E-02
   5.49999997E-02   3.07721365E-02
   9.00000036E-02   5.14451526E-02
  0.125000000       7.09410012E-02
  0.159999996       7.82558322E-02
  0.194999993       5.64328805E-02
  0.230000004      -1.50763104E-02
  0.264999986     -0.154754326
  0.300000012     -0.370743334
  0.335000008     -0.652087867
  0.370000005     -0.962592661
  0.405000001      -1.24050939
  0.439999998      -1.40612888
  0.474999994      -1.37710524
  0.509999990      -1.08889842
  0.545000017     -0.515794277
  0.579999983      0.313122451
  0.615000010       1.30831480
  0.649999976       2.32769132
  0.685000002       3.19827485
  0.720000029       3.74857187
  0.754999995       3.84526277
  0.790000021       3.42550898
  0.824999988       2.51627803
  0.860000014       1.23490500
  0.894999981     -0.230498433
  0.930000007      -1.65709817
  0.964999974      -2.83139825
   1.00000000      -3.59036922
   1.03499997      -3.84988332
   1.07000005      -3.61477113
   1.10500002      -2.96986365
   1.13999999      -2.05603027
   1.17499995      -1.03844666
   1.21000004      -7.50259608E-02
   1.24500000      0.708877265
   1.27999997       1.23619485
   1.31500006       1.48331213
   1.35000002       1.47530949
   1.38499999       1.27326918
   1.41999996      0.956797898
   1.45500004      0.605704665
   1.49000001      0.284918427
   1.52499998       3.58309709E-02
   1.55999994     -0.124875948
   1.59500003     -0.200570479
   1.63000000     -0.207643762
