 -0.800000012       0.00000000
 -0.788999975       0.00000000
 -0.777999997       0.00000000
 -0.767000020      -3.24439975E-10
 -0.755999982       1.52881274E-09
 -0.745000005       1.02393249E-09
 -0.734000027      -1.11954401E-08
 -0.722999990       1.52080815E-09
 -0.712000012       4.06723331E-08
 -0.700999975      -1.55252522E-08
 -0.689999998      -8.79246116E-08
 -0.679000020       6.82235637E-08
 -0.667999983       1.36075982E-07
 -0.657000005      -2.06092864E-07
 -0.646000028      -1.90799042E-07
 -0.634999990       4.33206651E-07
 -0.624000013       3.09542571E-07
 -0.612999976      -5.65440587E-07
 -0.601999998      -3.98161632E-07
 -0.591000021       4.24761254E-07
 -0.579999983       1.96567100E-07
 -0.569000006      -1.97226299E-07
 -0.558000028       2.81048017E-07
 -0.546999991       3.06139668E-07
 -0.536000013      -3.25069863E-07
 -0.524999976      -3.40744151E-07
 -0.513999999      -5.14190042E-08
 -0.503000021       7.44971729E-08
 -0.492000014       2.09854690E-07
 -0.481000006      -3.68191195E-07
 -0.469999999      -6.04632532E-07
 -0.458999991       1.50739186E-06
 -0.448000014       2.71835029E-06
 -0.437000006      -5.19281684E-07
 -0.425999999      -3.72819318E-06
 -0.414999992      -2.94938172E-06
 -0.404000014      -1.90685432E-06
 -0.393000007      -2.36523374E-06
 -0.381999999      -2.18474975E-06
 -0.370999992      -3.61617140E-06
 -0.360000014      -8.12599501E-06
 -0.349000007      -1.09736147E-05
 -0.338000000      -1.15626754E-05
 -0.326999992      -1.54702448E-05
 -0.316000015      -2.39313376E-05
 -0.305000007      -3.48395843E-05
 -0.294000000      -4.78186739E-05
 -0.282999992      -6.10950010E-05
 -0.272000015      -7.52291890E-05
 -0.261000007      -9.76570882E-05
 -0.250000000      -1.31788242E-04
 -0.238999993      -1.72787797E-04
 -0.228000000      -2.20503905E-04
 -0.216999993      -2.80688662E-04
 -0.206000000      -3.55272758E-04
 -0.194999993      -4.46591614E-04
 -0.184000000      -5.62161615E-04
 -0.172999993      -7.05430226E-04
 -0.162000000      -8.74532911E-04
 -0.150999993      -1.07293134E-03
 -0.140000001      -1.30901730E-03
 -0.128999993      -1.58796285E-03
 -0.118000001      -1.91240129E-03
 -0.107000001      -2.28592171E-03
  -9.60000008E-02  -2.71195709E-03
  -8.50000009E-02  -3.19325575E-03
  -7.40000010E-02  -3.73223401E-03
  -6.30000010E-02  -4.33005625E-03
  -5.20000011E-02  -4.98712482E-03
  -4.10000011E-02  -5.70337800E-03
  -2.99999993E-02  -6.47557154E-03
  -1.89999994E-02  -7.29636243E-03
  -8.00000038E-03  -8.15804210E-03
   3.00000003E-03  -9.05479398E-03
   1.40000004E-02  -9.98008531E-03
   2.50000004E-02  -1.09251896E-02
   3.59999985E-02  -1.18825249E-02
   4.69999984E-02  -1.28475735E-02
   5.79999983E-02  -1.38168316E-02
   6.89999983E-02  -1.47901028E-02
   7.99999982E-02  -1.57779343E-02
   9.09999982E-02  -1.68030430E-02
  0.101999998      -1.78959742E-02
  0.112999998      -1.90967750E-02
  0.123999998      -2.04610508E-02
  0.135000005      -2.20608227E-02
  0.145999998      -2.39834301E-02
  0.157000005      -2.63340939E-02
  0.167999998      -2.92358939E-02
  0.179000005      -3.28232534E-02
  0.189999998      -3.72366868E-02
  0.201000005      -4.26225290E-02
  0.211999997      -4.91290949E-02
  0.223000005      -5.68951443E-02
  0.233999997      -6.60391822E-02
  0.245000005      -7.66528472E-02
  0.256000012      -8.87901708E-02
  0.266999990     -0.102453582
  0.277999997     -0.117584847
  0.289000005     -0.134056300
  0.300000012     -0.151657984
  0.310999990     -0.170091212
  0.321999997     -0.188970670
  0.333000004     -0.207823291
  0.344000012     -0.226086810
  0.354999989     -0.243118152
  0.365999997     -0.258207589
  0.377000004     -0.270597786
  0.388000011     -0.279510379
  0.398999989     -0.284171015
  0.409999996     -0.283832967
  0.421000004     -0.277811110
  0.432000011     -0.265519857
  0.442999989     -0.246502087
  0.453999996     -0.220459759
  0.465000004     -0.187287927
  0.476000011     -0.147093445
  0.486999989     -0.100202508
  0.497999996      -4.71730344E-02
  0.509000003       1.12016303E-02
  0.519999981       7.39101693E-02
  0.531000018      0.139746711
  0.541999996      0.207334667
  0.552999973      0.275165260
  0.564000010      0.341648996
  0.574999988      0.405166775
  0.586000025      0.464120150
  0.597000003      0.516987145
  0.607999980      0.562380373
  0.619000018      0.599096537
  0.629999995      0.626156628
  0.640999973      0.642841458
  0.652000010      0.648721516
  0.662999988      0.643671691
  0.674000025      0.627870917
  0.685000002      0.601795256
  0.695999980      0.566198409
  0.707000017      0.522078216
  0.717999995      0.470638067
  0.728999972      0.413245797
  0.740000010      0.351382285
  0.750999987      0.286584914
  0.762000024      0.220396072
  0.773000002      0.154314980
  0.783999979       8.97519737E-02
  0.795000017       2.79879123E-02
  0.805999994      -2.98585780E-02
  0.816999972      -8.28542560E-02
  0.828000009     -0.130265936
  0.838999987     -0.171569288
  0.850000024     -0.206447467
  0.861000001     -0.234779119
  0.871999979     -0.256623983
  0.883000016     -0.272206038
  0.893999994     -0.281886578
  0.904999971     -0.286135435
  0.916000009     -0.285507441
  0.926999986     -0.280616164
  0.938000023     -0.272104144
  0.949000001     -0.260618925
  0.959999979     -0.246796355
  0.971000016     -0.231243610
  0.981999993     -0.214522675
  0.992999971     -0.197139293
   1.00399995     -0.179538175
   1.01499999     -0.162101701
   1.02600002     -0.145146832
   1.03699994     -0.128923804
   1.04799998     -0.113622554
   1.05900002      -9.93806273E-02
   1.07000005      -8.62852111E-02
   1.08099997      -7.43776187E-02
   1.09200001      -6.36640564E-02
   1.10300004      -5.41221984E-02
   1.11399996      -4.57031466E-02
   1.12500000      -3.83392125E-02
   1.13600004      -3.19537558E-02
   1.14699996      -2.64632478E-02
   1.15799999      -2.17771623E-02
   1.16900003      -1.78037211E-02
   1.17999995      -1.44564696E-02
   1.19099998      -1.16549227E-02
   1.20200002      -9.32284165E-03
   1.21300006      -7.39022810E-03
   1.22399998      -5.79636963E-03
   1.23500001      -4.48866235E-03
   1.24600005      -3.42066051E-03
   1.25699997      -2.55357684E-03
   1.26800001      -1.85658340E-03
   1.27900004      -1.30361598E-03
   1.28999996      -8.71965545E-04
   1.30100000      -5.42729278E-04
   1.31200004      -2.99687730E-04
   1.32299995      -1.28825675E-04
   1.33399999      -1.85640201E-05
   1.34500003       4.20923279E-05
   1.35599995       6.39818754E-05
   1.36699998       5.59704422E-05
   1.37800002       2.64371829E-05
   1.38900006      -1.50702936E-05
