 -0.959999979       0.00000000
 -0.925000012       0.00000000
 -0.889999986       0.00000000
 -0.855000019      -1.22523161E-12
 -0.819999993      -4.90092645E-12
 -0.785000026       1.24373894E-12
 -0.750000000       1.49637559E-11
 -0.714999974       9.29787358E-11
 -0.680000007      -7.01857669E-11
 -0.644999981       8.81486203E-11
 -0.610000014      -2.65490768E-10
 -0.574999988       4.99086716E-10
 -0.540000021       2.13780371E-09
 -0.504999995       2.66905942E-09
 -0.469999999      -5.03771114E-09
 -0.435000002      -1.52293989E-09
 -0.400000006       4.50015891E-09
 -0.365000010       8.76435102E-09
 -0.330000013      -1.25837829E-09
 -0.294999987       7.91635379E-09
 -0.259999990      -1.08816787E-08
 -0.224999994       2.63104756E-08
 -0.189999998       4.27490443E-09
 -0.155000001       1.45721790E-08
 -0.119999997       1.14008314E-08
  -8.50000009E-02  -7.26456761E-08
  -5.00000007E-02  -2.87978388E-08
  -1.49999997E-02   1.40427074E-08
   1.99999996E-02  -1.52217350E-08
   5.49999997E-02   4.56355735E-08
   9.00000036E-02   1.43267584E-07
  0.125000000      -7.99045523E-08
  0.159999996      -1.20910812E-07
  0.194999993       3.38448558E-08
  0.230000004      -7.23089144E-08
  0.264999986      -3.30034382E-08
  0.300000012       1.38033997E-07
  0.335000008       1.16091190E-08
  0.370000005      -5.74862540E-08
  0.405000001       5.74497179E-08
  0.439999998       1.28248745E-08
  0.474999994      -2.84736661E-08
  0.509999990       8.13278618E-08
  0.545000017       1.84097750E-08
  0.579999983      -9.53314085E-08
  0.615000010      -9.71471081E-09
  0.649999976      -6.05978414E-08
  0.685000002      -1.48793248E-07
  0.720000029       4.41751136E-10
  0.754999995       3.68136917E-08
  0.790000021      -5.37144658E-08
  0.824999988       4.80965419E-08
  0.860000014       1.52846610E-07
  0.894999981      -2.82263652E-08
  0.930000007      -1.35484683E-07
  0.964999974       2.95161460E-08
   1.00000000       6.45785434E-08
   1.03499997      -1.31081663E-07
   1.07000005      -1.06681178E-07
   1.10500002       1.30179089E-07
   1.13999999       7.34031147E-08
   1.17499995      -1.37886062E-07
   1.21000004       2.09548201E-08
   1.24500000       1.68116202E-07
   1.27999997      -7.92705706E-08
   1.31500006      -1.23265480E-07
   1.35000002       1.24221984E-07
   1.38499999       4.44163533E-08
   1.41999996      -1.00687885E-07
   1.45500004       5.94116507E-08
   1.49000001       5.49511867E-08
   1.52499998      -9.41974605E-08
   1.55999994      -2.15069784E-09
   1.59500003       2.49763019E-08
   1.63000000      -9.06649262E-08
