 -0.800000012       0.00000000
 -0.788999975       0.00000000
 -0.777999997       2.29482379E-24
 -0.767000020      -5.72808995E-16
 -0.755999982       5.39498313E-16
 -0.745000005      -1.80225911E-14
 -0.734000027       3.51228326E-16
 -0.722999990      -3.46654205E-15
 -0.712000012      -4.98239264E-15
 -0.700999975       1.55718076E-13
 -0.689999998      -3.29772108E-16
 -0.679000020      -2.88796385E-13
 -0.667999983      -1.19205405E-12
 -0.657000005      -3.94267870E-13
 -0.646000028       1.85481361E-12
 -0.634999990       1.39163995E-12
 -0.624000013      -9.91075386E-13
 -0.612999976      -8.11669688E-13
 -0.601999998      -1.50206464E-12
 -0.591000021      -3.91445210E-12
 -0.579999983       4.90709903E-12
 -0.569000006       6.24304471E-12
 -0.558000028      -9.87903162E-12
 -0.546999991       1.45187118E-12
 -0.536000013       1.54117691E-11
 -0.524999976      -2.08453237E-11
 -0.513999999      -1.86840474E-11
 -0.503000021       3.75407344E-11
 -0.492000014       1.20840161E-11
 -0.481000006      -1.72473476E-11
 -0.469999999      -3.88553512E-12
 -0.458999991      -7.04284062E-11
 -0.448000014       2.83905434E-11
 -0.437000006       1.77267756E-10
 -0.425999999      -1.39847425E-10
 -0.414999992      -1.55162536E-10
 -0.404000014       3.79077547E-10
 -0.393000007      -1.33693362E-10
 -0.381999999      -6.17121965E-10
 -0.370999992       6.00732075E-10
 -0.360000014       5.61492908E-10
 -0.349000007      -8.23927315E-10
 -0.338000000      -1.36279765E-10
 -0.326999992       3.62513131E-10
 -0.316000015      -1.06330011E-09
 -0.305000007       5.41060752E-10
 -0.294000000       2.50307575E-09
 -0.282999992       1.11180128E-11
 -0.272000015      -1.17617305E-09
 -0.261000007      -3.08697645E-09
 -0.250000000      -4.18649870E-09
 -0.238999993       4.88084373E-09
 -0.228000000       7.55122631E-09
 -0.216999993       2.92440472E-09
 -0.206000000      -2.58393684E-09
 -0.194999993      -2.03143173E-08
 -0.184000000      -1.50328316E-09
 -0.172999993       2.66660312E-08
 -0.162000000      -1.74494819E-08
 -0.150999993      -5.36750306E-08
 -0.140000001       4.13419343E-08
 -0.128999993       9.34715274E-08
 -0.118000001      -3.45405233E-08
 -0.107000001      -7.05685324E-08
  -9.60000008E-02  -6.80964174E-09
  -8.50000009E-02  -1.82540933E-08
  -7.40000010E-02  -2.32777300E-08
  -6.30000010E-02   1.13587475E-07
  -5.20000011E-02   6.55205099E-08
  -4.10000011E-02  -1.51038108E-07
  -2.99999993E-02   1.02760502E-07
  -1.89999994E-02   1.61540925E-07
  -8.00000038E-03  -5.90645811E-07
   3.00000003E-03  -3.22359767E-07
   1.40000004E-02   1.01099511E-06
   2.50000004E-02   7.04546551E-07
   3.59999985E-02  -7.38494862E-07
   4.69999984E-02  -8.57857287E-07
   5.79999983E-02  -1.52857709E-08
   6.89999983E-02   3.02162590E-07
   7.99999982E-02   1.87802698E-07
   9.09999982E-02   1.83678011E-07
  0.101999998       1.57472115E-07
  0.112999998      -8.88438212E-09
  0.123999998       1.03451043E-07
  0.135000005      -2.76462782E-08
  0.145999998      -5.18730360E-07
  0.157000005      -2.91111490E-07
  0.167999998       5.21629943E-07
  0.179000005       8.93483787E-07
  0.189999998      -2.16852300E-07
  0.201000005      -1.66612074E-06
  0.211999997      -7.06608375E-07
  0.223000005       1.62790286E-06
  0.233999997       1.32868968E-06
  0.245000005      -6.65502057E-07
  0.256000012      -1.21761943E-07
  0.266999990       1.46520370E-06
  0.277999997      -4.46433006E-07
  0.289000005      -2.33704600E-06
  0.300000012       1.99708936E-07
  0.310999990       1.41687008E-06
  0.321999997      -8.78516744E-07
  0.333000004      -1.54103634E-06
  0.344000012      -1.21340591E-07
  0.354999989       4.47227706E-07
  0.365999997       5.68468010E-07
  0.377000004       6.21794015E-07
  0.388000011      -9.34630151E-08
  0.398999989      -9.98924605E-08
  0.409999996       8.88491854E-07
  0.421000004       4.64847050E-09
  0.432000011      -1.39184453E-06
  0.442999989       4.10653882E-07
  0.453999996       3.92744028E-07
  0.465000004      -1.19630249E-06
  0.476000011       1.30089268E-06
  0.486999989       2.14109400E-06
  0.497999996      -1.36957078E-06
  0.509000003      -1.24028031E-06
  0.519999981       1.69342934E-06
  0.531000018      -7.62044749E-07
  0.541999996      -2.79379856E-06
  0.552999973       2.94769961E-06
  0.564000010       5.03468027E-06
  0.574999988      -2.05373863E-06
  0.586000025      -4.40665553E-06
  0.597000003       6.78068446E-08
  0.607999980      -6.98300084E-07
  0.619000018      -2.06762184E-06
  0.629999995       2.49184018E-06
  0.640999973       2.10904591E-06
  0.652000010      -2.07580706E-06
  0.662999988       1.95232985E-07
  0.674000025       3.19304650E-06
  0.685000002      -2.23978373E-06
  0.695999980      -6.99145767E-06
  0.707000017       1.20280419E-07
  0.717999995       5.60329136E-06
  0.728999972       7.40002235E-07
  0.740000010       6.08124608E-08
  0.750999987       4.87089710E-06
  0.762000024       8.41538963E-07
  0.773000002      -6.29908664E-06
  0.783999979      -3.49024504E-06
  0.795000017       2.71995077E-06
  0.805999994       2.55355826E-06
  0.816999972      -5.02375542E-07
  0.828000009      -8.52967787E-07
  0.838999987      -4.74031538E-07
  0.850000024      -7.97811083E-07
  0.861000001      -9.78042408E-07
  0.871999979      -1.90899911E-07
  0.883000016       2.00885756E-06
  0.893999994       3.29774571E-06
  0.904999971       2.03183072E-06
  0.916000009      -6.97767799E-09
  0.926999986      -1.27828264E-06
  0.938000023      -1.80427878E-06
  0.949000001      -8.05827256E-07
  0.959999979      -2.97879524E-07
  0.971000016      -4.17245565E-06
  0.981999993      -5.58627744E-06
  0.992999971       3.03521961E-06
   1.00399995       9.01952080E-06
   1.01499999       1.61906655E-06
   1.02600002      -3.36465519E-06
   1.03699994       3.27053999E-06
   1.04799998       4.58129989E-06
   1.05900002      -4.22911762E-06
   1.07000005      -7.47472677E-06
   1.08099997      -2.61293894E-06
   1.09200001       8.72735825E-07
   1.10300004       9.27542999E-07
   1.11399996      -3.54801756E-07
   1.12500000       2.60019618E-07
   1.13600004       4.39273163E-06
   1.14699996       3.50616301E-06
   1.15799999      -4.73888167E-06
   1.16900003      -4.68152666E-06
   1.17999995       5.04520449E-06
   1.19099998       4.75071874E-06
   1.20200002      -3.92086577E-06
   1.21300006      -1.98153566E-06
   1.22399998       4.96152097E-06
   1.23500001       1.54405552E-06
   1.24600005      -5.07716049E-06
   1.25699997      -4.33517062E-06
   1.26800001      -4.08071799E-07
   1.27900004       1.88381944E-06
   1.28999996       1.95670259E-06
   1.30100000       9.51026720E-07
   1.31200004       3.33557023E-06
   1.32299995       6.19633784E-06
   1.33399999       1.83768378E-07
   1.34500003      -8.39059612E-06
   1.35599995      -5.36762263E-06
   1.36699998       2.90959406E-06
   1.37800002       1.91686127E-06
   1.38900006      -3.67110624E-06
