 -0.959999979       0.00000000
 -0.925000012       3.52946885E-27
 -0.889999986       0.00000000
 -0.855000019       0.00000000
 -0.819999993       1.55793545E-10
 -0.785000026       1.21679902E-10
 -0.750000000      -1.55536339E-09
 -0.714999974      -1.36906797E-08
 -0.680000007       7.72237598E-08
 -0.644999981      -9.30802670E-08
 -0.610000014      -6.84318868E-09
 -0.574999988       1.18469593E-07
 -0.540000021      -1.45636330E-08
 -0.504999995      -2.01682653E-07
 -0.469999999       2.96290210E-07
 -0.435000002      -7.12307212E-07
 -0.400000006       1.60742366E-06
 -0.365000010      -3.16140836E-06
 -0.330000013       1.04385583E-06
 -0.294999987       4.38593406E-06
 -0.259999990       8.19030788E-07
 -0.224999994      -9.63352340E-06
 -0.189999998       8.79468007E-06
 -0.155000001      -5.36744983E-06
 -0.119999997      -6.81764732E-06
  -8.50000009E-02   1.64168086E-05
  -5.00000007E-02  -1.23335485E-05
  -1.49999997E-02   2.75049115E-06
   1.99999996E-02   2.66808638E-05
   5.49999997E-02  -3.30342664E-05
   9.00000036E-02  -2.85672813E-05
  0.125000000       7.00420132E-05
  0.159999996      -2.64749979E-05
  0.194999993      -2.75874281E-05
  0.230000004       6.12940494E-05
  0.264999986      -4.97581023E-05
  0.300000012      -6.67587301E-05
  0.335000008       1.10507572E-04
  0.370000005       1.71529223E-06
  0.405000001      -1.07805834E-04
  0.439999998       1.11101763E-04
  0.474999994       4.96088469E-05
  0.509999990      -1.62956698E-04
  0.545000017       5.42328089E-05
  0.579999983       7.52479900E-05
  0.615000010      -1.06612541E-04
  0.649999976       2.66729221E-05
  0.685000002       9.36950819E-05
  0.720000029      -9.65276340E-05
  0.754999995      -1.18708431E-05
  0.790000021       9.41659600E-05
  0.824999988      -4.63751130E-05
  0.860000014      -3.74376832E-05
  0.894999981       4.78481561E-05
  0.930000007      -3.53348987E-05
  0.964999974      -1.91714189E-05
   1.00000000       1.07419743E-04
   1.03499997      -4.93686348E-05
   1.07000005      -9.73062488E-05
   1.10500002       1.15179020E-04
   1.13999999      -9.32351440E-07
   1.17499995      -1.27065767E-04
   1.21000004       7.40756732E-05
   1.24500000       6.31600269E-05
   1.27999997      -9.79270553E-05
   1.31500006       3.26852714E-05
   1.35000002       8.46589464E-05
   1.38499999      -8.46275216E-05
   1.41999996      -1.90758619E-05
   1.45500004       7.81483250E-05
   1.49000001      -4.34247704E-05
   1.52499998      -3.60364174E-05
   1.55999994       5.95508754E-05
   1.59500003       1.63083939E-06
   1.63000000      -4.63567339E-05
