 -0.800000012       0.00000000
 -0.788999975       0.00000000
 -0.777999997       0.00000000
 -0.767000020       0.00000000
 -0.755999982       0.00000000
 -0.745000005      -7.27196555E-14
 -0.734000027      -1.59100977E-12
 -0.722999990       1.20139870E-11
 -0.712000012      -3.03572549E-11
 -0.700999975      -4.43462498E-12
 -0.689999998       1.71164888E-10
 -0.679000020      -2.42435572E-10
 -0.667999983      -3.38807732E-10
 -0.657000005       1.16123344E-09
 -0.646000028      -8.38450975E-11
 -0.634999990      -2.98083513E-09
 -0.624000013       2.29965469E-09
 -0.612999976       4.84670748E-09
 -0.601999998      -7.01557656E-09
 -0.591000021      -4.04980627E-09
 -0.579999983       1.19581491E-08
 -0.569000006      -3.95869382E-09
 -0.558000028      -9.75221415E-09
 -0.546999991       2.43877611E-08
 -0.536000013      -9.52031964E-09
 -0.524999976      -5.96991399E-08
 -0.513999999       4.74520476E-08
 -0.503000021       1.00073102E-07
 -0.492000014      -8.56604743E-08
 -0.481000006      -1.08214728E-07
 -0.469999999       9.61602495E-08
 -0.458999991       2.18258709E-08
 -0.448000014      -8.34216891E-08
 -0.437000006       1.83430103E-07
 -0.425999999       9.89260940E-08
 -0.414999992      -3.95121077E-07
 -0.404000014      -1.41935203E-07
 -0.393000007       3.99927018E-07
 -0.381999999       4.62807250E-08
 -0.370999992      -1.58002493E-07
 -0.360000014       3.18179474E-07
 -0.349000007      -9.66191323E-08
 -0.338000000      -6.86188969E-07
 -0.326999992       3.38981863E-07
 -0.316000015       8.33652166E-07
 -0.305000007      -6.70934867E-07
 -0.294000000      -1.09397274E-06
 -0.282999992      -6.30468122E-08
 -0.272000015      -7.01581314E-07
 -0.261000007      -1.67863413E-06
 -0.250000000      -7.67521499E-07
 -0.238999993      -1.08774429E-06
 -0.228000000      -3.54283179E-06
 -0.216999993      -4.22418861E-06
 -0.206000000      -3.80074380E-06
 -0.194999993      -5.75111881E-06
 -0.184000000      -8.43894941E-06
 -0.172999993      -1.04619357E-05
 -0.162000000      -1.42166309E-05
 -0.150999993      -1.91339459E-05
 -0.140000001      -2.36424476E-05
 -0.128999993      -3.05178364E-05
 -0.118000001      -4.04833918E-05
 -0.107000001      -5.07287514E-05
  -9.60000008E-02  -6.30489303E-05
  -8.50000009E-02  -8.05451054E-05
  -7.40000010E-02  -1.00803089E-04
  -6.30000010E-02  -1.22748475E-04
  -5.20000011E-02  -1.49771906E-04
  -4.10000011E-02  -1.81903335E-04
  -2.99999993E-02  -2.17111694E-04
  -1.89999994E-02  -2.57314852E-04
  -8.00000038E-03  -3.03396548E-04
   3.00000003E-03  -3.52142873E-04
   1.40000004E-02  -4.02411504E-04
   2.50000004E-02  -4.55164729E-04
   3.59999985E-02  -5.08040888E-04
   4.69999984E-02  -5.56602958E-04
   5.79999983E-02  -5.97452221E-04
   6.89999983E-02  -6.26754423E-04
   7.99999982E-02  -6.38326397E-04
   9.09999982E-02  -6.23717555E-04
  0.101999998      -5.73941332E-04
  0.112999998      -4.80553746E-04
  0.123999998      -3.33002361E-04
  0.135000005      -1.17905351E-04
  0.145999998       1.76691407E-04
  0.157000005       5.61828609E-04
  0.167999998       1.05152326E-03
  0.179000005       1.65860669E-03
  0.189999998       2.39060004E-03
  0.201000005       3.25436960E-03
  0.211999997       4.25599096E-03
  0.223000005       5.39349066E-03
  0.233999997       6.65717199E-03
  0.245000005       8.03268142E-03
  0.256000012       9.49631725E-03
  0.266999990       1.10121453E-02
  0.277999997       1.25337737E-02
  0.289000005       1.40017038E-02
  0.300000012       1.53412372E-02
  0.310999990       1.64655223E-02
  0.321999997       1.72743704E-02
  0.333000004       1.76511705E-02
  0.344000012       1.74668822E-02
  0.354999989       1.65834352E-02
  0.365999997       1.48525443E-02
  0.377000004       1.21201640E-02
  0.388000011       8.23401846E-03
  0.398999989       3.04479362E-03
  0.409999996      -3.59089253E-03
  0.421000004      -1.17991194E-02
  0.432000011      -2.16795001E-02
  0.442999989      -3.33022177E-02
  0.453999996      -4.67016958E-02
  0.465000004      -6.18656091E-02
  0.476000011      -7.87269846E-02
  0.486999989      -9.71597806E-02
  0.497999996     -0.116972439
  0.509000003     -0.137901500
  0.519999981     -0.159610733
  0.531000018     -0.181692868
  0.541999996     -0.203669474
  0.552999973     -0.224994525
  0.564000010     -0.245065287
  0.574999988     -0.263234347
  0.586000025     -0.278822660
  0.597000003     -0.291138709
  0.607999980     -0.299499571
  0.619000018     -0.303251296
  0.629999995     -0.301795095
  0.640999973     -0.294615984
  0.652000010     -0.281305641
  0.662999988     -0.261584044
  0.674000025     -0.235324547
  0.685000002     -0.202571630
  0.695999980     -0.163550586
  0.707000017     -0.118677422
  0.717999995      -6.85625076E-02
  0.728999972      -1.40009578E-02
  0.740000010       4.40421104E-02
  0.750999987      0.104449451
  0.762000024      0.165980622
  0.773000002      0.227308109
  0.783999979      0.287054390
  0.795000017      0.343833476
  0.805999994      0.396297932
  0.816999972      0.443182737
  0.828000009      0.483347088
  0.838999987      0.515815794
  0.850000024      0.539812744
  0.861000001      0.554784119
  0.871999979      0.560419202
  0.883000016      0.556663036
  0.893999994      0.543713629
  0.904999971      0.522008717
  0.916000009      0.492211729
  0.926999986      0.455188811
  0.938000023      0.411972284
  0.949000001      0.363720059
  0.959999979      0.311678052
  0.971000016      0.257137507
  0.981999993      0.201388851
  0.992999971      0.145682320
   1.00399995       9.11947042E-02
   1.01499999       3.89953926E-02
   1.02600002      -9.98347253E-03
   1.03699994      -5.49635328E-02
   1.04799998      -9.53287333E-02
   1.05900002     -0.130633876
   1.07000005     -0.160607427
   1.08099997     -0.185141623
   1.09200001     -0.204276010
   1.10300004     -0.218182936
   1.11399996     -0.227151319
   1.12500000     -0.231564119
   1.13600004     -0.231874093
   1.14699996     -0.228582472
   1.15799999     -0.222218797
   1.16900003     -0.213320762
   1.17999995     -0.202416062
   1.19099998     -0.190007523
   1.20200002     -0.176562428
   1.21300006     -0.162505105
   1.22399998     -0.148210064
   1.23500001     -0.133997262
   1.24600005     -0.120132521
   1.25699997     -0.106829613
   1.26800001      -9.42509323E-02
   1.27900004      -8.25114325E-02
   1.28999996      -7.16861784E-02
   1.30100000      -6.18150346E-02
   1.31200004      -5.29060960E-02
   1.32299995      -4.49436158E-02
   1.33399999      -3.78949158E-02
   1.34500003      -3.17119211E-02
   1.35599995      -2.63342708E-02
   1.36699998      -2.16960032E-02
   1.37800002      -1.77292023E-02
   1.38900006      -1.43653024E-02
