 -0.959999979       0.00000000
 -0.925000012       3.01245182E-05
 -0.889999986       1.59863717E-04
 -0.855000019       3.17388418E-04
 -0.819999993       4.76970046E-04
 -0.785000026       1.12739229E-03
 -0.750000000       2.72706174E-03
 -0.714999974       5.33466041E-03
 -0.680000007       9.81742982E-03
 -0.644999981       1.79774966E-02
 -0.610000014       3.09902709E-02
 -0.574999988       4.96898741E-02
 -0.540000021       7.53402561E-02
 -0.504999995      0.107177652
 -0.469999999      0.140262350
 -0.435000002      0.166644275
 -0.400000006      0.175569564
 -0.365000010      0.153123900
 -0.330000013       8.72236416E-02
 -0.294999987      -2.46614777E-02
 -0.259999990     -0.171253711
 -0.224999994     -0.325290084
 -0.189999998     -0.444921672
 -0.155000001     -0.486647427
 -0.119999997     -0.426840454
  -8.50000009E-02 -0.279542685
  -5.00000007E-02 -0.105493687
  -1.49999997E-02  -7.49094924E-03
   1.99999996E-02 -0.100861274
   5.49999997E-02 -0.462689579
   9.00000036E-02  -1.08294713
  0.125000000      -1.83627355
  0.159999996      -2.48651910
  0.194999993      -2.73872614
  0.230000004      -2.33467221
  0.264999986      -1.15639496
  0.300000012      0.702156007
  0.335000008       2.92176127
  0.370000005       5.02122927
  0.405000001       6.49105692
  0.439999998       6.95032644
  0.474999994       6.26634073
  0.509999990       4.59485674
  0.545000017       2.32270145
  0.579999983      -6.88910335E-02
  0.615000010      -2.15856123
  0.649999976      -3.68949342
  0.685000002      -4.59254932
  0.720000029      -4.93324280
  0.754999995      -4.81948185
  0.790000021      -4.32982445
  0.824999988      -3.50387907
  0.860000014      -2.38527346
  0.894999981      -1.07640481
  0.930000007      0.235184371
  0.964999974       1.30669558
   1.00000000       1.92426944
   1.03499997       1.99757087
   1.07000005       1.60827732
   1.10500002      0.984200537
   1.13999999      0.407458454
   1.17499995       9.43289846E-02
   1.21000004      0.104371332
   1.24500000      0.327129632
   1.27999997      0.551910043
   1.31500006      0.582971752
   1.35000002      0.343707681
   1.38499999      -8.24935287E-02
   1.41999996     -0.497840077
   1.45500004     -0.696231842
   1.49000001     -0.570402861
   1.52499998     -0.167325571
   1.55999994      0.332108587
   1.59500003      0.700815558
   1.63000000      0.777451098
