 -0.800000012       0.00000000
 -0.788999975       0.00000000
 -0.777999997       0.00000000
 -0.767000020      -9.87461363E-11
 -0.755999982      -4.80910589E-11
 -0.745000005      -5.11505238E-09
 -0.734000027       3.35024524E-08
 -0.722999990      -1.04261673E-07
 -0.712000012       2.23155652E-07
 -0.700999975      -1.78493934E-07
 -0.689999998      -9.40514383E-07
 -0.679000020       3.23675204E-06
 -0.667999983      -1.24091252E-06
 -0.657000005      -1.12826092E-05
 -0.646000028       1.71614065E-05
 -0.634999990       1.77606689E-05
 -0.624000013      -6.09781855E-05
 -0.612999976       2.18268610E-06
 -0.601999998       1.29966589E-04
 -0.591000021      -8.58883577E-05
 -0.579999983      -1.74986460E-04
 -0.569000006       2.49443023E-04
 -0.558000028       9.11856332E-05
 -0.546999991      -4.39847179E-04
 -0.536000013       2.28048870E-04
 -0.524999976       5.13074396E-04
 -0.513999999      -7.55405170E-04
 -0.503000021      -2.62204965E-04
 -0.492000014       1.18810765E-03
 -0.481000006      -5.19619207E-04
 -0.469999999      -1.00520300E-03
 -0.458999991       1.90352893E-03
 -0.448000014      -1.44711579E-04
 -0.437000006      -3.48510710E-03
 -0.425999999       2.08422611E-03
 -0.414999992       4.06953832E-03
 -0.404000014      -4.37064841E-03
 -0.393000007      -2.33533466E-03
 -0.381999999       6.54915441E-03
 -0.370999992      -1.69496017E-03
 -0.360000014      -7.25363521E-03
 -0.349000007       7.21975323E-03
 -0.338000000       5.17811859E-03
 -0.326999992      -1.34329489E-02
 -0.316000015      -2.65403488E-03
 -0.305000007       1.34523390E-02
 -0.294000000      -5.97007712E-03
 -0.282999992      -1.37133533E-02
 -0.272000015       9.15186945E-03
 -0.261000007       2.17293412E-03
 -0.250000000      -2.04376467E-02
 -0.238999993      -2.51555513E-03
 -0.228000000       7.93170184E-03
 -0.216999993      -2.26397980E-02
 -0.206000000      -2.53219754E-02
 -0.194999993      -2.76166550E-03
 -0.184000000      -2.41152216E-02
 -0.172999993      -4.97963056E-02
 -0.162000000      -3.37216519E-02
 -0.150999993      -4.19383831E-02
 -0.140000001      -8.38987902E-02
 -0.128999993      -9.01137739E-02
 -0.118000001      -9.16832089E-02
 -0.107000001     -0.140347287
  -9.60000008E-02 -0.178680256
  -8.50000009E-02 -0.191867545
  -7.40000010E-02 -0.244286433
  -6.30000010E-02 -0.311629951
  -5.20000011E-02 -0.348203242
  -4.10000011E-02 -0.409731686
  -2.99999993E-02 -0.508134127
  -1.89999994E-02 -0.578180671
  -8.00000038E-03 -0.646420896
   3.00000003E-03 -0.760921299
   1.40000004E-02 -0.861506999
   2.50000004E-02 -0.932408154
   3.59999985E-02  -1.04275727
   4.69999984E-02  -1.16016817
   5.79999983E-02  -1.21932197
   6.89999983E-02  -1.28050196
   7.99999982E-02  -1.36711991
   9.09999982E-02  -1.38947594
  0.101999998      -1.35721195
  0.112999998      -1.34324729
  0.123999998      -1.28182507
  0.135000005      -1.11435473
  0.145999998     -0.925703347
  0.157000005     -0.723224998
  0.167999998     -0.406646281
  0.179000005      -9.75655112E-03
  0.189999998      0.384669155
  0.201000005      0.845772445
  0.211999997       1.41222632
  0.223000005       1.97994125
  0.233999997       2.53971672
  0.245000005       3.17315936
  0.256000012       3.81755280
  0.266999990       4.38272524
  0.277999997       4.92989731
  0.289000005       5.47114515
  0.300000012       5.89511967
  0.310999990       6.20345736
  0.321999997       6.46544361
  0.333000004       6.60657692
  0.344000012       6.56412649
  0.354999989       6.42112303
  0.365999997       6.18579912
  0.377000004       5.77189350
  0.388000011       5.22407532
  0.398999989       4.62053490
  0.409999996       3.90319920
  0.421000004       3.06074858
  0.432000011       2.19617772
  0.442999989       1.30938613
  0.453999996      0.341818064
  0.465000004     -0.634949267
  0.476000011      -1.56086373
  0.486999989      -2.50369310
  0.497999996      -3.46539450
  0.509000003      -4.36095572
  0.519999981      -5.21603012
  0.531000018      -6.09934044
  0.541999996      -6.95675755
  0.552999973      -7.74727678
  0.564000010      -8.54176712
  0.574999988      -9.35066032
  0.586000025      -10.0942402
  0.597000003      -10.7771072
  0.607999980      -11.4475183
  0.619000018      -12.0441265
  0.629999995      -12.4957027
  0.640999973      -12.8256264
  0.652000010      -13.0197992
  0.662999988      -12.9864483
  0.674000025      -12.6988487
  0.685000002      -12.1746159
  0.695999980      -11.3619127
  0.707000017      -10.2187757
  0.717999995      -8.78001690
  0.728999972      -7.05283833
  0.740000010      -5.02231312
  0.750999987      -2.74963951
  0.762000024     -0.301991791
  0.773000002       2.30316019
  0.783999979       4.99110699
  0.795000017       7.63605881
  0.805999994       10.1815872
  0.816999972       12.5827150
  0.828000009       14.7171774
  0.838999987       16.4892025
  0.850000024       17.8861351
  0.861000001       18.8638763
  0.871999979       19.3364048
  0.883000016       19.3019485
  0.893999994       18.8087406
  0.904999971       17.8535519
  0.916000009       16.4374008
  0.926999986       14.6505022
  0.938000023       12.5840921
  0.949000001       10.2718849
  0.959999979       7.78492069
  0.971000016       5.25161028
  0.981999993       2.74777746
  0.992999971      0.310430557
   1.00399995      -1.96886313
   1.01499999      -4.00043249
   1.02600002      -5.77153778
   1.03699994      -7.26400995
   1.04799998      -8.42111206
   1.05900002      -9.23856258
   1.07000005      -9.75306320
   1.08099997      -9.96408939
   1.09200001      -9.87783623
   1.10300004      -9.55358791
   1.11399996      -9.03503513
   1.12500000      -8.33447647
   1.13600004      -7.50189447
   1.14699996      -6.60577822
   1.15799999      -5.66425657
   1.16900003      -4.69064951
   1.17999995      -3.74547195
   1.19099998      -2.86624908
   1.20200002      -2.03632998
   1.21300006      -1.27321303
   1.22399998     -0.625140190
   1.23500001      -7.71043897E-02
   1.24600005      0.401348889
   1.25699997      0.776486278
   1.26800001       1.04063821
   1.27900004       1.24696600
   1.28999996       1.39339280
   1.30100000       1.44764292
   1.31200004       1.45482326
   1.32299995       1.45080519
   1.33399999       1.39488173
   1.34500003       1.29547787
   1.35599995       1.21309626
   1.36699998       1.12928212
   1.37800002       1.00707161
   1.38900006      0.893074751
