 -0.959999979       0.00000000
 -0.925000012       0.00000000
 -0.889999986      -3.07394181E-08
 -0.855000019      -1.33048999E-07
 -0.819999993      -4.72040199E-07
 -0.785000026      -1.22133952E-06
 -0.750000000      -2.26733528E-06
 -0.714999974      -4.22867015E-06
 -0.680000007      -9.72142971E-06
 -0.644999981      -2.13295189E-05
 -0.610000014      -3.99967903E-05
 -0.574999988      -6.98842341E-05
 -0.540000021      -1.21162666E-04
 -0.504999995      -2.02197305E-04
 -0.469999999      -3.14583274E-04
 -0.435000002      -4.58697847E-04
 -0.400000006      -6.31099101E-04
 -0.365000010      -8.10644764E-04
 -0.330000013      -9.56681499E-04
 -0.294999987      -1.01803464E-03
 -0.259999990      -9.32918745E-04
 -0.224999994      -6.30617375E-04
 -0.189999998      -4.69437946E-05
 -0.155000001       8.72382894E-04
 -0.119999997       2.19347700E-03
  -8.50000009E-02   4.01595142E-03
  -5.00000007E-02   6.48348173E-03
  -1.49999997E-02   9.78192594E-03
   1.99999996E-02   1.40857194E-02
   5.49999997E-02   1.94147266E-02
   9.00000036E-02   2.54207235E-02
  0.125000000       3.11524160E-02
  0.159999996       3.48618664E-02
  0.194999993       3.39568518E-02
  0.230000004       2.52149105E-02
  0.264999986       5.32199722E-03
  0.300000012      -2.82737147E-02
  0.335000008      -7.63030723E-02
  0.370000005     -0.136658892
  0.405000001     -0.203750595
  0.439999998     -0.268539995
  0.474999994     -0.319472671
  0.509999990     -0.344312787
  0.545000017     -0.332580626
  0.579999983     -0.278044164
  0.615000010     -0.180664644
  0.649999976      -4.74794097E-02
  0.685000002      0.107891567
  0.720000029      0.267094433
  0.754999995      0.409882218
  0.790000021      0.517404735
  0.824999988      0.575359404
  0.860000014      0.576407313
  0.894999981      0.521354318
  0.930000007      0.418861866
  0.964999974      0.283780724
   1.00000000      0.134484842
   1.03499997      -1.02388561E-02
   1.07000005     -0.134109840
   1.10500002     -0.225523010
   1.13999999     -0.278671086
   1.17499995     -0.293636441
   1.21000004     -0.275627762
   1.24500000     -0.233554795
   1.27999997     -0.178169325
   1.31500006     -0.120079376
   1.35000002      -6.79745674E-02
   1.38499999      -2.73941811E-02
   1.41999996      -3.28292401E-04
   1.45500004       1.42564811E-02
   1.49000001       1.92258637E-02
   1.52499998       1.79422442E-02
   1.55999994       1.32882958E-02
   1.59500003       7.29764113E-03
   1.63000000       1.30321330E-03
