 -0.959999979       0.00000000
 -0.925000012      -1.18841319E-06
 -0.889999986      -1.24818725E-05
 -0.855000019       4.90180537E-06
 -0.819999993      -1.44862061E-05
 -0.785000026      -5.94249359E-05
 -0.750000000      -6.74801922E-05
 -0.714999974      -2.02410461E-04
 -0.680000007      -3.02689732E-04
 -0.644999981      -2.14543776E-04
 -0.610000014      -7.01398181E-04
 -0.574999988      -1.64844363E-03
 -0.540000021      -1.64269167E-03
 -0.504999995      -1.36562833E-03
 -0.469999999      -2.23531644E-03
 -0.435000002      -2.40116334E-03
 -0.400000006      -8.98649218E-04
 -0.365000010      -9.08506219E-04
 -0.330000013      -4.20309277E-03
 -0.294999987      -1.24330251E-02
 -0.259999990      -3.51009034E-02
 -0.224999994      -8.55016261E-02
 -0.189999998     -0.173962906
 -0.155000001     -0.311877996
 -0.119999997     -0.506941795
  -8.50000009E-02 -0.744897962
  -5.00000007E-02 -0.982802868
  -1.49999997E-02  -1.15224397
   1.99999996E-02  -1.15845311
   5.49999997E-02 -0.894918799
   9.00000036E-02 -0.283506453
  0.125000000      0.687977314
  0.159999996       1.94382823
  0.194999993       3.30800748
  0.230000004       4.52055120
  0.264999986       5.29594851
  0.300000012       5.39330673
  0.335000008       4.67230749
  0.370000005       3.13341641
  0.405000001      0.928099394
  0.439999998      -1.67335689
  0.474999994      -4.33441639
  0.509999990      -6.70145464
  0.545000017      -8.45223141
  0.579999983      -9.33937454
  0.615000010      -9.21669388
  0.649999976      -8.05044079
  0.685000002      -5.92407179
  0.720000029      -3.03417134
  0.754999995      0.323134154
  0.790000021       3.77074862
  0.824999988       6.87739182
  0.860000014       9.19981956
  0.894999981       10.3498421
  0.930000007       10.0856228
  0.964999974       8.40064144
   1.00000000       5.57121181
   1.03499997       2.13329482
   1.07000005      -1.22933972
   1.10500002      -3.86755371
   1.13999999      -5.35375786
   1.17499995      -5.59453201
   1.21000004      -4.82616615
   1.24500000      -3.49609900
   1.27999997      -2.07971287
   1.31500006     -0.917326093
   1.35000002     -0.141554430
   1.38499999      0.289423853
   1.41999996      0.492748469
   1.45500004      0.562290192
   1.49000001      0.525535464
   1.52499998      0.369945943
   1.55999994      0.108160473
   1.59500003     -0.173731074
   1.63000000     -0.329324067
