 -0.959999979       0.00000000
 -0.925000012      -1.31975465E-19
 -0.889999986       9.25543713E-13
 -0.855000019       2.77306199E-11
 -0.819999993      -7.91386817E-11
 -0.785000026      -5.19672569E-11
 -0.750000000      -4.15553009E-10
 -0.714999974       1.94831618E-09
 -0.680000007      -3.54588314E-09
 -0.644999981       7.65038255E-09
 -0.610000014      -1.36457885E-08
 -0.574999988       2.22148095E-08
 -0.540000021      -4.98309949E-10
 -0.504999995      -1.07215058E-07
 -0.469999999       9.50005372E-08
 -0.435000002       2.57114436E-07
 -0.400000006      -4.57181898E-07
 -0.365000010       8.50637107E-08
 -0.330000013      -3.72654000E-07
 -0.294999987       2.28860745E-06
 -0.259999990      -2.95812174E-06
 -0.224999994      -1.30638921E-06
 -0.189999998       7.83978521E-06
 -0.155000001      -6.67183212E-06
 -0.119999997      -4.71506974E-06
  -8.50000009E-02   1.22597739E-05
  -5.00000007E-02  -6.34386333E-06
  -1.49999997E-02  -6.81408346E-06
   1.99999996E-02   1.78054870E-05
   5.49999997E-02  -4.36734172E-06
   9.00000036E-02  -2.43752165E-05
  0.125000000       1.44339001E-05
  0.159999996       1.99273290E-05
  0.194999993      -1.66113186E-05
  0.230000004      -3.34439096E-06
  0.264999986       9.73877104E-06
  0.300000012      -2.88953415E-05
  0.335000008       1.58741568E-06
  0.370000005       3.80105848E-05
  0.405000001       2.00236245E-05
  0.439999998      -5.03883348E-05
  0.474999994      -9.76532465E-06
  0.509999990       1.87172554E-05
  0.545000017       6.43225212E-06
  0.579999983      -1.06650195E-05
  0.615000010       3.25547044E-05
  0.649999976       4.82996825E-07
  0.685000002      -1.85594236E-05
  0.720000029      -1.61609933E-05
  0.754999995       8.07120159E-06
  0.790000021      -4.21677760E-06
  0.824999988       1.38015002E-05
  0.860000014      -2.44059047E-05
  0.894999981       8.51312871E-06
  0.930000007       2.30561636E-05
  0.964999974      -1.32347441E-05
   1.00000000      -3.23693857E-05
   1.03499997       4.73067630E-05
   1.07000005       3.47004134E-05
   1.10500002      -7.00850505E-05
   1.13999999      -1.57612340E-05
   1.17499995       6.12584699E-05
   1.21000004      -2.06735403E-05
   1.24500000      -5.43192255E-05
   1.27999997       7.53636632E-05
   1.31500006      -1.18755543E-05
   1.35000002      -6.30605500E-05
   1.38499999       6.90760353E-05
   1.41999996       1.56992228E-05
   1.45500004      -7.01120880E-05
   1.49000001       2.42296246E-05
   1.52499998       2.41264061E-05
   1.55999994      -5.37500528E-05
   1.59500003       4.45227670E-05
   1.63000000       5.31265323E-05
