 -0.959999979       0.00000000
 -0.925000012      -1.22328535E-19
 -0.889999986       0.00000000
 -0.855000019      -4.91344847E-11
 -0.819999993       3.13751886E-10
 -0.785000026      -1.12521270E-09
 -0.750000000       2.96722558E-09
 -0.714999974      -2.13933893E-09
 -0.680000007       4.35966285E-09
 -0.644999981      -1.07768168E-08
 -0.610000014      -1.64640046E-09
 -0.574999988       1.49951731E-08
 -0.540000021      -2.76030807E-08
 -0.504999995       3.12218056E-08
 -0.469999999      -1.16510137E-07
 -0.435000002       2.89819809E-07
 -0.400000006      -1.60204522E-07
 -0.365000010      -5.20601702E-07
 -0.330000013       1.01887611E-06
 -0.294999987      -1.02897934E-06
 -0.259999990      -2.79176845E-07
 -0.224999994       2.62927642E-06
 -0.189999998      -2.27088344E-06
 -0.155000001      -1.25176928E-06
 -0.119999997       3.84737541E-06
  -8.50000009E-02  -3.57108547E-07
  -5.00000007E-02  -3.36203743E-06
  -1.49999997E-02  -2.71939643E-06
   1.99999996E-02   2.54925703E-06
   5.49999997E-02   5.79547896E-06
   9.00000036E-02  -1.35650389E-05
  0.125000000       9.00957366E-06
  0.159999996       2.99739222E-05
  0.194999993      -2.48893466E-05
  0.230000004      -3.94890958E-05
  0.264999986       3.38437421E-05
  0.300000012       3.39310864E-05
  0.335000008      -4.33801542E-05
  0.370000005      -3.21277366E-05
  0.405000001       6.18632912E-05
  0.439999998       4.02546139E-05
  0.474999994      -1.00790785E-04
  0.509999990      -3.33371986E-06
  0.545000017       9.81789854E-05
  0.579999983      -1.96151923E-05
  0.615000010      -8.89795047E-05
  0.649999976       4.13213675E-05
  0.685000002       8.44224560E-05
  0.720000029      -5.79966072E-05
  0.754999995      -7.90249105E-05
  0.790000021       4.55081463E-05
  0.824999988       2.70770161E-05
  0.860000014      -5.21542897E-05
  0.894999981       4.05771389E-05
  0.930000007       1.07431901E-04
  0.964999974      -3.61340935E-05
   1.00000000      -1.30249464E-04
   1.03499997      -1.29177952E-05
   1.07000005       7.77433961E-05
   1.10500002       3.55172160E-05
   1.13999999      -8.65722268E-06
   1.17499995      -1.94741006E-05
   1.21000004      -1.46336133E-05
   1.24500000      -8.53085839E-06
   1.27999997      -2.81376033E-05
   1.31500006      -9.83714017E-06
   1.35000002       7.48772509E-05
   1.38499999       6.89913650E-05
   1.41999996      -4.46840713E-05
   1.45500004      -8.10165802E-05
   1.49000001      -6.36494462E-07
   1.52499998       2.26907159E-05
   1.55999994       9.05472825E-06
   1.59500003       3.58325706E-05
   1.63000000       8.48664422E-06
