 -0.800000012       0.00000000
 -0.788999975       0.00000000
 -0.777999997       0.00000000
 -0.767000020       0.00000000
 -0.755999982      -1.19482823E-14
 -0.745000005      -2.97156132E-14
 -0.734000027      -6.66404323E-13
 -0.722999990       2.75070396E-12
 -0.712000012      -6.44784139E-12
 -0.700999975       1.13554192E-11
 -0.689999998       7.56093278E-12
 -0.679000020      -1.10035675E-10
 -0.667999983       1.64014496E-10
 -0.657000005       2.87913943E-10
 -0.646000028      -9.53381707E-10
 -0.634999990      -1.18145910E-10
 -0.624000013       2.86612778E-09
 -0.612999976      -1.52795898E-09
 -0.601999998      -5.65793856E-09
 -0.591000021       5.93804117E-09
 -0.579999983       7.14152826E-09
 -0.569000006      -1.28283464E-08
 -0.558000028      -2.61562216E-09
 -0.546999991       1.86305620E-08
 -0.536000013      -1.33447333E-08
 -0.524999976      -1.77261210E-08
 -0.513999999       3.99744238E-08
 -0.503000021       6.27095886E-09
 -0.492000014      -5.91591629E-08
 -0.481000006       1.91716527E-08
 -0.469999999       3.46284246E-08
 -0.458999991      -7.15442425E-08
 -0.448000014       5.26102291E-08
 -0.437000006       1.59254299E-07
 -0.425999999      -1.55799626E-07
 -0.414999992      -2.18661683E-07
 -0.404000014       2.10890533E-07
 -0.393000007       1.11592819E-07
 -0.381999999      -2.70280225E-07
 -0.370999992       1.40297146E-07
 -0.360000014       3.45783121E-07
 -0.349000007      -3.26424868E-07
 -0.338000000      -1.25039563E-07
 -0.326999992       7.02903549E-07
 -0.316000015      -9.45451291E-08
 -0.305000007      -1.21313792E-06
 -0.294000000      -7.03995340E-07
 -0.282999992      -9.17226430E-07
 -0.272000015      -2.78976313E-06
 -0.261000007      -3.55493080E-06
 -0.250000000      -4.05720994E-06
 -0.238999993      -7.03243040E-06
 -0.228000000      -1.03119619E-05
 -0.216999993      -1.26317773E-05
 -0.206000000      -1.76911235E-05
 -0.194999993      -2.58144155E-05
 -0.184000000      -3.42717285E-05
 -0.172999993      -4.56469061E-05
 -0.162000000      -6.30475697E-05
 -0.150999993      -8.45288014E-05
 -0.140000001      -1.11084541E-04
 -0.128999993      -1.47791521E-04
 -0.118000001      -1.95402172E-04
 -0.107000001      -2.54107319E-04
  -9.60000008E-02  -3.29795090E-04
  -8.50000009E-02  -4.27101506E-04
  -7.40000010E-02  -5.47623029E-04
  -6.30000010E-02  -6.97705196E-04
  -5.20000011E-02  -8.85496032E-04
  -4.10000011E-02  -1.11541711E-03
  -2.99999993E-02  -1.39491388E-03
  -1.89999994E-02  -1.73589750E-03
  -8.00000038E-03  -2.14684312E-03
   3.00000003E-03  -2.63600331E-03
   1.40000004E-02  -3.21723288E-03
   2.50000004E-02  -3.90270562E-03
   3.59999985E-02  -4.70100250E-03
   4.69999984E-02  -5.62547427E-03
   5.79999983E-02  -6.69032382E-03
   6.89999983E-02  -7.90270697E-03
   7.99999982E-02  -9.27003287E-03
   9.09999982E-02  -1.08027868E-02
  0.101999998      -1.25036668E-02
  0.112999998      -1.43687641E-02
  0.123999998      -1.63963940E-02
  0.135000005      -1.85791180E-02
  0.145999998      -2.08966918E-02
  0.157000005      -2.33262852E-02
  0.167999998      -2.58433688E-02
  0.179000005      -2.84096524E-02
  0.189999998      -3.09771374E-02
  0.201000005      -3.34980786E-02
  0.211999997      -3.59166600E-02
  0.223000005      -3.81643660E-02
  0.233999997      -4.01725136E-02
  0.245000005      -4.18733470E-02
  0.256000012      -4.31902148E-02
  0.266999990      -4.40451689E-02
  0.277999997      -4.43698280E-02
  0.289000005      -4.40979563E-02
  0.300000012      -4.31640670E-02
  0.310999990      -4.15168740E-02
  0.321999997      -3.91190834E-02
  0.333000004      -3.59389633E-02
  0.344000012      -3.19594331E-02
  0.354999989      -2.71856599E-02
  0.365999997      -2.16349345E-02
  0.377000004      -1.53357079E-02
  0.388000011      -8.33806302E-03
  0.398999989      -7.08326756E-04
  0.409999996       7.48046767E-03
  0.421000004       1.61415525E-02
  0.432000011       2.51730066E-02
  0.442999989       3.44702154E-02
  0.453999996       4.39258441E-02
  0.465000004       5.34228310E-02
  0.476000011       6.28429875E-02
  0.486999989       7.20743015E-02
  0.497999996       8.10026452E-02
  0.509000003       8.95116180E-02
  0.519999981       9.74929556E-02
  0.531000018      0.104843222
  0.541999996      0.111455470
  0.552999973      0.117225885
  0.564000010      0.122058824
  0.574999988      0.125858307
  0.586000025      0.128526405
  0.597000003      0.129973024
  0.607999980      0.130115554
  0.619000018      0.128873095
  0.629999995      0.126173288
  0.640999973      0.121961311
  0.652000010      0.116197452
  0.662999988      0.108858317
  0.674000025       9.99478325E-02
  0.685000002       8.95007029E-02
  0.695999980       7.75804743E-02
  0.707000017       6.42855167E-02
  0.717999995       4.97540236E-02
  0.728999972       3.41600962E-02
  0.740000010       1.77128576E-02
  0.750999987       6.57945115E-04
  0.762000024      -1.67297460E-02
  0.773000002      -3.41539979E-02
  0.783999979      -5.12995385E-02
  0.795000017      -6.78411275E-02
  0.805999994      -8.34587440E-02
  0.816999972      -9.78444070E-02
  0.828000009     -0.110707574
  0.838999987     -0.121789999
  0.850000024     -0.130877256
  0.861000001     -0.137800232
  0.871999979     -0.142440572
  0.883000016     -0.144741207
  0.893999994     -0.144706473
  0.904999971     -0.142395914
  0.916000009     -0.137924880
  0.926999986     -0.131464988
  0.938000023     -0.123232603
  0.949000001     -0.113477379
  0.959999979     -0.102479085
  0.971000016      -9.05390009E-02
  0.981999993      -7.79635012E-02
  0.992999971      -6.50553554E-02
   1.00399995      -5.21096922E-02
   1.01499999      -3.94023955E-02
   1.02600002      -2.71790847E-02
   1.03699994      -1.56541150E-02
   1.04799998      -5.00817783E-03
   1.05900002       4.61884961E-03
   1.07000005       1.31281139E-02
   1.08099997       2.04572473E-02
   1.09200001       2.65806783E-02
   1.10300004       3.15088816E-02
   1.11399996       3.52811851E-02
   1.12500000       3.79602611E-02
   1.13600004       3.96306776E-02
   1.14699996       4.03932892E-02
   1.15799999       4.03568149E-02
   1.16900003       3.96350250E-02
   1.17999995       3.83454449E-02
   1.19099998       3.66026834E-02
   1.20200002       3.45133692E-02
   1.21300006       3.21776196E-02
   1.22399998       2.96875946E-02
   1.23500001       2.71219593E-02
   1.24600005       2.45471373E-02
   1.25699997       2.20208112E-02
   1.26800001       1.95883401E-02
   1.27900004       1.72818732E-02
   1.28999996       1.51263913E-02
   1.30100000       1.31394155E-02
   1.31200004       1.13275051E-02
   1.32299995       9.69168637E-03
   1.33399999       8.23147129E-03
   1.34500003       6.93999371E-03
   1.35599995       5.80527214E-03
   1.36699998       4.81736194E-03
   1.37800002       3.96606838E-03
   1.38900006       3.23664909E-03
