 -0.800000012       0.00000000
 -0.788999975       0.00000000
 -0.777999997       0.00000000
 -0.767000020      -5.43103756E-13
 -0.755999982      -1.35070807E-12
 -0.745000005      -2.97480061E-11
 -0.734000027       1.26382724E-10
 -0.722999990      -2.62792788E-10
 -0.712000012       3.91123661E-10
 -0.700999975       6.36762643E-10
 -0.689999998      -5.51778179E-09
 -0.679000020       7.11152603E-09
 -0.667999983       1.80886381E-08
 -0.657000005      -5.07907529E-08
 -0.646000028      -1.84572908E-08
 -0.634999990       1.73614140E-07
 -0.624000013      -6.40824140E-08
 -0.612999976      -3.87457618E-07
 -0.601999998       3.39363822E-07
 -0.591000021       5.81793870E-07
 -0.579999983      -8.53018378E-07
 -0.569000006      -4.43506622E-07
 -0.558000028       1.42995214E-06
 -0.546999991      -4.87687089E-07
 -0.536000013      -1.65257882E-06
 -0.524999976       2.42359874E-06
 -0.513999999       1.09077882E-06
 -0.503000021      -4.50607331E-06
 -0.492000014       5.86394492E-07
 -0.481000006       4.26307361E-06
 -0.469999999      -4.12345435E-06
 -0.458999991       8.17349871E-07
 -0.448000014       1.04908522E-05
 -0.437000006      -9.47316676E-06
 -0.425999999      -1.71780102E-05
 -0.414999992       1.66677273E-05
 -0.404000014       1.50115729E-05
 -0.393000007      -2.18714013E-05
 -0.381999999       1.30473040E-06
 -0.370999992       2.80028671E-05
 -0.360000014      -2.12146097E-05
 -0.349000007      -2.14009469E-05
 -0.338000000       4.67875943E-05
 -0.326999992       1.38587791E-06
 -0.316000015      -8.70927470E-05
 -0.305000007      -2.77019572E-05
 -0.294000000       1.34505954E-05
 -0.282999992      -9.48078377E-05
 -0.272000015      -1.19896082E-04
 -0.261000007      -5.76113525E-05
 -0.250000000      -1.58066949E-04
 -0.238999993      -2.84306094E-04
 -0.228000000      -2.54518091E-04
 -0.216999993      -3.35417630E-04
 -0.206000000      -5.99206833E-04
 -0.194999993      -7.53662956E-04
 -0.184000000      -9.01483407E-04
 -0.172999993      -1.30799355E-03
 -0.162000000      -1.76735036E-03
 -0.150999993      -2.18349346E-03
 -0.140000001      -2.87558255E-03
 -0.128999993      -3.83262942E-03
 -0.118000001      -4.83254204E-03
 -0.107000001      -6.10874733E-03
  -9.60000008E-02  -7.86335580E-03
  -8.50000009E-02  -9.90131591E-03
  -7.40000010E-02  -1.23001924E-02
  -6.30000010E-02  -1.53577793E-02
  -5.20000011E-02  -1.89868491E-02
  -4.10000011E-02  -2.31554601E-02
  -2.99999993E-02  -2.82037109E-02
  -1.89999994E-02  -3.41784731E-02
  -8.00000038E-03  -4.09138314E-02
   3.00000003E-03  -4.86541986E-02
   1.40000004E-02  -5.75774834E-02
   2.50000004E-02  -6.74440637E-02
   3.59999985E-02  -7.83076435E-02
   4.69999984E-02  -9.04236659E-02
   5.79999983E-02 -0.103510514
   6.89999983E-02 -0.117259540
   7.99999982E-02 -0.131821707
   9.09999982E-02 -0.146983162
  0.101999998     -0.162090212
  0.112999998     -0.176942617
  0.123999998     -0.191379711
  0.135000005     -0.204558566
  0.145999998     -0.215779737
  0.157000005     -0.224849001
  0.167999998     -0.231062844
  0.179000005     -0.233353361
  0.189999998     -0.231291622
  0.201000005     -0.224523529
  0.211999997     -0.212104470
  0.223000005     -0.193447739
  0.233999997     -0.168589056
  0.245000005     -0.137168393
  0.256000012      -9.87203345E-02
  0.266999990      -5.36186062E-02
  0.277999997      -2.39856541E-03
  0.289000005       5.48069440E-02
  0.300000012      0.117320448
  0.310999990      0.183862522
  0.321999997      0.253543377
  0.333000004      0.325440317
  0.344000012      0.397876769
  0.354999989      0.469293863
  0.365999997      0.538634419
  0.377000004      0.604404092
  0.388000011      0.664880037
  0.398999989      0.719023108
  0.409999996      0.765904903
  0.421000004      0.804208577
  0.432000011      0.833120942
  0.442999989      0.852399170
  0.453999996      0.861480892
  0.465000004      0.859871387
  0.476000011      0.847795248
  0.486999989      0.825437367
  0.497999996      0.792604804
  0.509000003      0.749562621
  0.519999981      0.696892738
  0.531000018      0.634657204
  0.541999996      0.562846899
  0.552999973      0.481973320
  0.564000010      0.392383605
  0.574999988      0.293978482
  0.586000025      0.187031776
  0.597000003       7.22348616E-02
  0.607999980      -4.99973409E-02
  0.619000018     -0.179197475
  0.629999995     -0.314173907
  0.640999973     -0.453444004
  0.652000010     -0.595585465
  0.662999988     -0.738618851
  0.674000025     -0.879896879
  0.685000002      -1.01669729
  0.695999980      -1.14613771
  0.707000017      -1.26483774
  0.717999995      -1.36934161
  0.728999972      -1.45641649
  0.740000010      -1.52282405
  0.750999987      -1.56557727
  0.762000024      -1.58236444
  0.773000002      -1.57135046
  0.783999979      -1.53122866
  0.795000017      -1.46178377
  0.805999994      -1.36378717
  0.816999972      -1.23857963
  0.828000009      -1.08843124
  0.838999987     -0.916802585
  0.850000024     -0.727740645
  0.861000001     -0.525612295
  0.871999979     -0.315505803
  0.883000016     -0.102995239
  0.893999994      0.106611066
  0.904999971      0.308258027
  0.916000009      0.496857524
  0.926999986      0.667832673
  0.938000023      0.817624867
  0.949000001      0.943341792
  0.959999979       1.04265106
  0.971000016       1.11434472
  0.981999993       1.15834618
  0.992999971       1.17516971
   1.00399995       1.16604042
   1.01499999       1.13320839
   1.02600002       1.07946968
   1.03699994       1.00777197
   1.04799998      0.921496987
   1.05900002      0.824372351
   1.07000005      0.719928980
   1.08099997      0.611485958
   1.09200001      0.502346158
   1.10300004      0.395471573
   1.11399996      0.293244034
   1.12500000      0.197710514
   1.13600004      0.110594667
   1.14699996       3.30010429E-02
   1.15799999      -3.44699547E-02
   1.16900003      -9.14209858E-02
   1.17999995     -0.137828767
   1.19099998     -0.174188256
   1.20200002     -0.201140657
   1.21300006     -0.219347283
   1.22399998     -0.229801044
   1.23500001     -0.233664542
   1.24600005     -0.231875777
   1.25699997     -0.225397974
   1.26800001     -0.215405837
   1.27900004     -0.202821046
   1.28999996     -0.188293606
   1.30100000     -0.172667921
   1.31200004     -0.156711176
   1.32299995     -0.140733182
   1.33399999     -0.125076056
   1.34500003     -0.110278025
   1.35599995      -9.64899063E-02
   1.36699998      -8.36063176E-02
   1.37800002      -7.18421414E-02
   1.38900006      -6.13892935E-02
