 -0.800000012       0.00000000
 -0.788999975       0.00000000
 -0.777999997       0.00000000
 -0.767000020       0.00000000
 -0.755999982       1.03150649E-29
 -0.745000005       2.17533903E-27
 -0.734000027       6.44173002E-19
 -0.722999990      -5.35089128E-19
 -0.712000012      -4.86793309E-18
 -0.700999975       1.76891135E-17
 -0.689999998      -1.34713576E-16
 -0.679000020       1.09613362E-16
 -0.667999983       7.24961947E-16
 -0.657000005      -1.26154366E-15
 -0.646000028      -1.63944349E-15
 -0.634999990       4.32763490E-15
 -0.624000013       4.55033299E-16
 -0.612999976      -5.06753131E-15
 -0.601999998       6.96175575E-15
 -0.591000021      -6.42719442E-16
 -0.579999983      -1.55950167E-14
 -0.569000006       2.80234955E-14
 -0.558000028       1.25008383E-14
 -0.546999991      -8.46131230E-14
 -0.536000013       3.42331178E-14
 -0.524999976       1.73533890E-13
 -0.513999999      -1.44809905E-13
 -0.503000021      -2.69014899E-13
 -0.492000014       2.49956387E-13
 -0.481000006       3.39527424E-13
 -0.469999999      -2.01410503E-13
 -0.458999991      -5.93483975E-13
 -0.448000014      -2.15539636E-13
 -0.437000006       1.31039103E-12
 -0.425999999       1.13086038E-12
 -0.414999992      -2.78749723E-12
 -0.404000014      -1.91057543E-12
 -0.393000007       5.42575620E-12
 -0.381999999       2.20459697E-12
 -0.370999992      -8.68655235E-12
 -0.360000014      -2.04790438E-12
 -0.349000007       1.14096926E-11
 -0.338000000       3.56252701E-12
 -0.326999992      -1.34118645E-11
 -0.316000015      -1.19465887E-11
 -0.305000007       1.61189430E-11
 -0.294000000       3.21152410E-11
 -0.282999992      -1.83053885E-11
 -0.272000015      -5.54593073E-11
 -0.261000007       2.52630625E-11
 -0.250000000       6.61666485E-11
 -0.238999993      -5.33286471E-11
 -0.228000000      -6.58437957E-11
 -0.216999993       9.71369096E-11
 -0.206000000       5.67018411E-11
 -0.194999993      -1.26695168E-10
 -0.184000000       1.68959757E-12
 -0.172999993       1.58604574E-10
 -0.162000000      -1.32949554E-10
 -0.150999993      -2.70309553E-10
 -0.140000001       2.34910646E-10
 -0.128999993       4.15809276E-10
 -0.118000001      -2.64988170E-10
 -0.107000001      -4.88653840E-10
  -9.60000008E-02   2.95121538E-10
  -8.50000009E-02   3.79257514E-10
  -7.40000010E-02  -6.08607609E-10
  -6.30000010E-02  -3.30500433E-10
  -5.20000011E-02   1.11195952E-09
  -4.10000011E-02   7.13262338E-10
  -2.99999993E-02  -8.20811918E-10
  -1.89999994E-02  -4.07603840E-10
  -8.00000038E-03   7.80460904E-11
   3.00000003E-03  -1.18864607E-09
   1.40000004E-02  -1.11518539E-09
   2.50000004E-02   5.41261702E-10
   3.59999985E-02   4.94497776E-10
   4.69999984E-02   8.29855740E-10
   5.79999983E-02   2.35164088E-09
   6.89999983E-02  -7.14744985E-10
   7.99999982E-02  -6.44778142E-09
   9.09999982E-02  -4.10960332E-09
  0.101999998       4.28896785E-09
  0.112999998       6.30214059E-09
  0.123999998       1.78204007E-10
  0.135000005      -3.88876842E-09
  0.145999998      -2.61123545E-09
  0.157000005      -3.52313734E-09
  0.167999998      -1.07878750E-09
  0.179000005       9.88128601E-09
  0.189999998       6.57075949E-09
  0.201000005      -1.95723100E-08
  0.211999997      -2.02140011E-08
  0.223000005       1.71039201E-08
  0.233999997       2.48079584E-08
  0.245000005      -1.62721694E-08
  0.256000012      -2.70617821E-08
  0.266999990       9.59236601E-09
  0.277999997       1.85002982E-08
  0.289000005      -6.61170718E-09
  0.300000012      -4.12823109E-09
  0.310999990       1.42427510E-08
  0.321999997       2.54850052E-09
  0.333000004      -1.46872354E-08
  0.344000012      -3.29578476E-09
  0.354999989       2.74962164E-09
  0.365999997      -2.28463417E-08
  0.377000004      -2.99043990E-08
  0.388000011       1.17469394E-08
  0.398999989       3.54382408E-08
  0.409999996      -1.70538406E-09
  0.421000004      -2.55699106E-08
  0.432000011       1.66990350E-08
  0.442999989       3.11165458E-08
  0.453999996      -2.03313952E-08
  0.465000004      -2.25235759E-08
  0.476000011       2.30188633E-08
  0.486999989       5.13731546E-09
  0.497999996      -4.49811211E-08
  0.509000003      -1.55488227E-08
  0.519999981       7.46474811E-08
  0.531000018       1.10357988E-07
  0.541999996       2.96191356E-08
  0.552999973      -1.07111724E-07
  0.564000010      -1.33817608E-07
  0.574999988      -2.39396662E-08
  0.586000025       5.74574734E-08
  0.597000003       4.16545127E-08
  0.607999980       2.97711562E-08
  0.619000018       1.44085952E-08
  0.629999995      -5.69455310E-08
  0.640999973      -6.74620608E-08
  0.652000010       4.99878361E-08
  0.662999988       1.16696221E-07
  0.674000025      -2.40567100E-09
  0.685000002      -1.36470817E-07
  0.695999980      -8.25959816E-08
  0.707000017       5.42015961E-08
  0.717999995       5.17140535E-08
  0.728999972      -1.95904146E-08
  0.740000010      -2.06751647E-08
  0.750999987       8.57208171E-09
  0.762000024      -8.01713629E-09
  0.773000002      -2.91753377E-08
  0.783999979       2.42057894E-08
  0.795000017       4.26367599E-08
  0.805999994      -3.53372709E-09
  0.816999972      -3.50703324E-08
  0.828000009      -3.85011489E-09
  0.838999987       9.01402153E-09
  0.850000024      -7.47831521E-08
  0.861000001      -9.32975723E-08
  0.871999979       6.38495763E-08
  0.883000016       1.82958331E-07
  0.893999994       8.70528183E-08
  0.904999971      -7.98944022E-09
  0.916000009       5.89377933E-08
  0.926999986       4.49125608E-08
  0.938000023      -1.62295535E-07
  0.949000001      -2.47062417E-07
  0.959999979      -3.30982957E-08
  0.971000016       1.87492404E-07
  0.981999993       1.18903486E-07
  0.992999971      -1.03241746E-07
   1.00399995      -1.36356647E-07
   1.01499999       6.00086310E-08
   1.02600002       1.61124532E-07
   1.03699994       2.80679586E-08
   1.04799998      -9.56867297E-08
   1.05900002      -6.72250806E-08
   1.07000005       1.87190992E-08
   1.08099997       8.73549908E-08
   1.09200001       8.73801440E-08
   1.10300004      -9.00835317E-09
   1.11399996      -6.86305981E-08
   1.12500000      -4.91905467E-08
   1.13600004      -5.72082826E-08
   1.14699996      -7.12650845E-08
   1.15799999       4.63043470E-09
   1.16900003       1.09118417E-07
   1.17999995       1.45926165E-07
   1.19099998       1.15735659E-07
   1.20200002       7.73373010E-09
   1.21300006      -1.36453679E-07
   1.22399998      -1.52108683E-07
   1.23500001      -2.45421301E-08
   1.24600005       4.27266862E-08
   1.25699997       1.99181844E-08
   1.26800001       6.22784100E-08
   1.27900004       1.07428221E-07
   1.28999996      -2.15228031E-08
   1.30100000      -1.85101811E-07
   1.31200004      -1.20654462E-07
   1.32299995       6.93834963E-08
   1.33399999       1.12661816E-07
   1.34500003       3.76966476E-08
   1.35599995       2.77926659E-08
   1.36699998       5.04443030E-08
   1.37800002      -1.71812644E-08
   1.38900006      -1.15869781E-07
