 -0.800000012       0.00000000
 -0.788999975       0.00000000
 -0.777999997       0.00000000
 -0.767000020       1.45502608E-14
 -0.755999982       2.34168238E-14
 -0.745000005       4.04679139E-14
 -0.734000027       2.45081028E-13
 -0.722999990      -1.57370211E-12
 -0.712000012       1.54141633E-13
 -0.700999975       6.06518655E-12
 -0.689999998      -6.12065953E-12
 -0.679000020      -9.25806046E-12
 -0.667999983       2.37983227E-11
 -0.657000005       4.15546590E-12
 -0.646000028      -6.05932110E-11
 -0.634999990       3.61660424E-11
 -0.624000013       9.87321822E-11
 -0.612999976      -1.11519141E-10
 -0.601999998      -1.08609087E-10
 -0.591000021       1.63480868E-10
 -0.579999983       1.63480854E-10
 -0.569000006      -8.96937524E-11
 -0.558000028      -4.50540327E-10
 -0.546999991      -1.18066779E-10
 -0.536000013       1.01758135E-09
 -0.524999976       3.51179252E-10
 -0.513999999      -1.80662496E-09
 -0.503000021      -4.49085297E-10
 -0.492000014       2.71450595E-09
 -0.481000006       4.62488658E-10
 -0.469999999      -3.70761710E-09
 -0.458999991      -1.94412486E-09
 -0.448000014       5.23206589E-09
 -0.437000006       7.91804400E-09
 -0.425999999      -7.70603048E-09
 -0.414999992      -1.84208453E-08
 -0.404000014       1.10027001E-08
 -0.393000007       2.81283601E-08
 -0.381999999      -1.83219040E-08
 -0.370999992      -2.64507722E-08
 -0.360000014       3.15774997E-08
 -0.349000007       3.79231357E-09
 -0.338000000      -4.35862582E-08
 -0.326999992       3.11526307E-08
 -0.316000015       3.71356919E-08
 -0.305000007      -4.36590177E-08
 -0.294000000       9.29230826E-09
 -0.282999992       2.11886029E-08
 -0.272000015      -5.80579602E-08
 -0.261000007       3.09198214E-08
 -0.250000000       1.67187739E-08
 -0.238999993      -1.36932016E-07
 -0.228000000       1.10212966E-07
 -0.216999993       3.71139947E-07
 -0.206000000      -7.43542401E-08
 -0.194999993      -6.72009264E-07
 -0.184000000      -3.91154202E-07
 -0.172999993       7.50331594E-07
 -0.162000000       1.25505119E-06
 -0.150999993      -2.23721358E-07
 -0.140000001      -2.03773197E-06
 -0.128999993      -8.92707760E-07
 -0.118000001       2.23022130E-06
 -0.107000001       2.18850278E-06
  -9.60000008E-02  -1.59074807E-06
  -8.50000009E-02  -3.05313097E-06
  -7.40000010E-02   2.76900892E-07
  -6.30000010E-02   3.02436320E-06
  -5.20000011E-02   1.39585086E-06
  -4.10000011E-02  -1.79561584E-06
  -2.99999993E-02  -2.78196080E-06
  -1.89999994E-02  -3.71226349E-07
  -8.00000038E-03   3.03181287E-06
   3.00000003E-03   2.47457274E-06
   1.40000004E-02  -1.55722410E-06
   2.50000004E-02  -2.54058909E-06
   3.59999985E-02   5.78787152E-08
   4.69999984E-02   7.01535839E-07
   5.79999983E-02  -2.55583785E-08
   6.89999983E-02   3.58847984E-07
   7.99999982E-02  -2.25211267E-07
   9.09999982E-02  -7.58612373E-07
  0.101999998       4.38187612E-07
  0.112999998      -1.20915089E-07
  0.123999998      -3.52601887E-07
  0.135000005       2.42912938E-06
  0.145999998       1.76759283E-06
  0.157000005      -2.94659981E-06
  0.167999998      -4.01936131E-06
  0.179000005       4.74319108E-07
  0.189999998       4.06211166E-06
  0.201000005       1.04645858E-06
  0.211999997      -2.86316276E-06
  0.223000005       2.47846742E-07
  0.233999997       2.98934947E-06
  0.245000005      -1.15866317E-06
  0.256000012      -4.25775306E-06
  0.266999990      -2.13606813E-06
  0.277999997       3.68068527E-06
  0.289000005       6.01692227E-06
  0.300000012      -5.62684193E-07
  0.310999990      -5.40203246E-06
  0.321999997       8.91503930E-07
  0.333000004       6.20763512E-06
  0.344000012      -3.36378548E-06
  0.354999989      -1.21365947E-05
  0.365999997       1.15075341E-06
  0.377000004       1.59950960E-05
  0.388000011       2.80757399E-06
  0.398999989      -1.22230122E-05
  0.409999996      -7.08567450E-06
  0.421000004      -1.57883005E-06
  0.432000011       6.88406999E-06
  0.442999989       1.68249971E-05
  0.453999996      -3.19989203E-06
  0.465000004      -2.29863890E-05
  0.476000011       1.23419136E-06
  0.486999989       2.01624789E-05
  0.497999996       4.23792289E-06
  0.509000003      -5.96523523E-06
  0.519999981      -5.10702557E-06
  0.531000018      -1.10668143E-05
  0.541999996      -3.00918100E-06
  0.552999973       1.39166177E-05
  0.564000010       7.31317141E-06
  0.574999988      -4.22497897E-06
  0.586000025       1.11499162E-06
  0.597000003      -3.11645817E-06
  0.607999980      -1.58018684E-05
  0.619000018       2.08047732E-06
  0.629999995       1.81659470E-05
  0.640999973       2.39634642E-06
  0.652000010       7.20291595E-08
  0.662999988      -6.43145768E-07
  0.674000025      -2.00720569E-05
  0.685000002      -4.36205528E-06
  0.695999980       2.09312875E-05
  0.707000017      -6.34070329E-06
  0.717999995      -1.48751205E-05
  0.728999972       1.42563267E-05
  0.740000010       1.55005807E-06
  0.750999987      -5.67320512E-06
  0.762000024       1.90479986E-05
  0.773000002      -7.74721047E-06
  0.783999979      -2.84634352E-05
  0.795000017       2.22901235E-05
  0.805999994       2.51985020E-05
  0.816999972      -2.10494563E-05
  0.828000009      -4.76731429E-06
  0.838999987       6.08545952E-06
  0.850000024      -2.54775805E-05
  0.861000001       5.24661891E-06
  0.871999979       3.89805100E-05
  0.883000016      -1.14303612E-05
  0.893999994      -3.08473536E-05
  0.904999971       6.36258619E-06
  0.916000009       8.41871315E-06
  0.926999986       9.59875069E-06
  0.938000023       1.97721092E-05
  0.949000001      -1.48483023E-05
  0.959999979      -2.54448096E-05
  0.971000016       8.08495952E-06
  0.981999993      -5.80574238E-07
  0.992999971      -6.93370885E-06
   1.00399995       2.75257880E-05
   1.01499999       1.07966625E-05
   1.02600002      -2.50157063E-05
   1.03699994      -1.80233030E-06
   1.04799998       2.83140457E-06
   1.05900002      -1.52118555E-05
   1.07000005       1.60770323E-05
   1.08099997       1.93608739E-05
   1.09200001      -2.33380324E-05
   1.10300004      -4.94314418E-06
   1.11399996       1.95486064E-05
   1.12500000      -1.54025729E-05
   1.13600004      -8.68589268E-06
   1.14699996       2.54152710E-05
   1.15799999      -3.18202910E-06
   1.16900003      -1.85858462E-05
   1.17999995       9.03479304E-06
   1.19099998      -4.08478407E-08
   1.20200002      -6.83239887E-06
   1.21300006       1.68030056E-05
   1.22399998      -6.80406004E-07
   1.23500001      -2.04404569E-05
   1.24600005       7.04431932E-06
   1.25699997       8.39821678E-06
   1.26800001      -8.52911944E-06
   1.27900004       9.80640289E-06
   1.28999996       5.65494474E-06
   1.30100000      -1.93464039E-05
   1.31200004      -1.55450346E-06
   1.32299995       1.09560187E-05
   1.33399999      -1.34178958E-06
   1.34500003       1.08336717E-05
   1.35599995       1.78890048E-06
   1.36699998      -3.15352554E-05
   1.37800002      -1.93899359E-06
   1.38900006       3.17879603E-05
