 -0.959999979       0.00000000
 -0.925000012      -1.40466349E-04
 -0.889999986      -1.30395638E-03
 -0.855000019      -1.05441525E-03
 -0.819999993      -7.19887845E-04
 -0.785000026      -5.69425430E-03
 -0.750000000      -1.31413490E-02
 -0.714999974      -1.99160986E-02
 -0.680000007      -3.52446884E-02
 -0.644999981      -6.48759902E-02
 -0.610000014     -0.103529811
 -0.574999988     -0.151703879
 -0.540000021     -0.208796352
 -0.504999995     -0.255728483
 -0.469999999     -0.269443065
 -0.435000002     -0.227611825
 -0.400000006      -9.01122615E-02
 -0.365000010      0.175378293
 -0.330000013      0.545943499
 -0.294999987      0.951376975
 -0.259999990       1.29135239
 -0.224999994       1.41647649
 -0.189999998       1.16033125
 -0.155000001      0.431681931
 -0.119999997     -0.747202754
  -8.50000009E-02  -2.24990845
  -5.00000007E-02  -3.83686090
  -1.49999997E-02  -5.20197916
   1.99999996E-02  -6.10050726
   5.49999997E-02  -6.40549421
   9.00000036E-02  -6.04641628
  0.125000000      -4.94942427
  0.159999996      -2.98864675
  0.194999993       7.09413067E-02
  0.230000004       4.48943472
  0.264999986       10.2715874
  0.300000012       16.8907604
  0.335000008       23.1815453
  0.370000005       27.4489861
  0.405000001       27.8884277
  0.439999998       23.2660122
  0.474999994       13.5129862
  0.509999990      -7.62997493E-02
  0.545000017      -15.1016932
  0.579999983      -28.7133541
  0.615000010      -38.4481201
  0.649999976      -42.8262558
  0.685000002      -41.4669838
  0.720000029      -34.8612022
  0.754999995      -24.0413513
  0.790000021      -10.3328171
  0.824999988       4.66217232
  0.860000014       18.9338818
  0.894999981       30.1294899
  0.930000007       36.0228310
  0.964999974       35.2535095
   1.00000000       28.0200462
   1.03499997       16.3514900
   1.07000005       3.63992000
   1.10500002      -6.52550173
   1.13999999      -11.7243242
   1.17499995      -11.6227064
   1.21000004      -7.98944092
   1.24500000      -3.74383950
   1.27999997      -1.45646274
   1.31500006      -2.07449245
   1.35000002      -4.54986715
   1.38499999      -6.55017328
   1.41999996      -5.87217236
   1.45500004      -1.81639481
   1.49000001       4.24789047
   1.52499998       9.49588776
   1.55999994       11.1279726
   1.59500003       7.91375589
   1.63000000      0.981090724
