 -0.800000012       0.00000000
 -0.788999975       0.00000000
 -0.777999997       0.00000000
 -0.767000020       0.00000000
 -0.755999982       0.00000000
 -0.745000005      -7.27196623E-14
 -0.734000027      -1.59100977E-12
 -0.722999990       1.20139853E-11
 -0.712000012      -3.03572514E-11
 -0.700999975      -4.43462541E-12
 -0.689999998       1.71164902E-10
 -0.679000020      -2.42435516E-10
 -0.667999983      -3.38807815E-10
 -0.657000005       1.16123322E-09
 -0.646000028      -8.38451669E-11
 -0.634999990      -2.98083602E-09
 -0.624000013       2.29965469E-09
 -0.612999976       4.84671014E-09
 -0.601999998      -7.01557434E-09
 -0.591000021      -4.04980671E-09
 -0.579999983       1.19581491E-08
 -0.569000006      -3.95869426E-09
 -0.558000028      -9.75222036E-09
 -0.546999991       2.43877523E-08
 -0.536000013      -9.52030899E-09
 -0.524999976      -5.96991256E-08
 -0.513999999       4.74520370E-08
 -0.503000021       1.00073109E-07
 -0.492000014      -8.56604601E-08
 -0.481000006      -1.08214735E-07
 -0.469999999       9.61603277E-08
 -0.458999991       2.18259615E-08
 -0.448000014      -8.34217815E-08
 -0.437000006       1.83430060E-07
 -0.425999999       9.89262290E-08
 -0.414999992      -3.95121106E-07
 -0.404000014      -1.41935345E-07
 -0.393000007       3.99927274E-07
 -0.381999999       4.62809879E-08
 -0.370999992      -1.58002564E-07
 -0.360000014       3.18179417E-07
 -0.349000007      -9.66195302E-08
 -0.338000000      -6.86189082E-07
 -0.326999992       3.38983654E-07
 -0.316000015       8.33652507E-07
 -0.305000007      -6.70937425E-07
 -0.294000000      -1.09397160E-06
 -0.282999992      -6.30441406E-08
 -0.272000015      -7.01586487E-07
 -0.261000007      -1.67863482E-06
 -0.250000000      -7.67507800E-07
 -0.238999993      -1.08774645E-06
 -0.228000000      -3.54285589E-06
 -0.216999993      -4.22418043E-06
 -0.206000000      -3.80070105E-06
 -0.194999993      -5.75112381E-06
 -0.184000000      -8.43900216E-06
 -0.172999993      -1.04619339E-05
 -0.162000000      -1.42165845E-05
 -0.150999993      -1.91339732E-05
 -0.140000001      -2.36424894E-05
 -0.128999993      -3.05177746E-05
 -0.118000001      -4.04833700E-05
 -0.107000001      -5.07288423E-05
  -9.60000008E-02  -6.30489085E-05
  -8.50000009E-02  -8.05450036E-05
  -7.40000010E-02  -1.00803220E-04
  -6.30000010E-02  -1.22748592E-04
  -5.20000011E-02  -1.49771746E-04
  -4.10000011E-02  -1.81903160E-04
  -2.99999993E-02  -2.17111679E-04
  -1.89999994E-02  -2.57314794E-04
  -8.00000038E-03  -3.03396839E-04
   3.00000003E-03  -3.52143659E-04
   1.40000004E-02  -4.02411679E-04
   2.50000004E-02  -4.55163565E-04
   3.59999985E-02  -5.08039666E-04
   4.69999984E-02  -5.56602783E-04
   5.79999983E-02  -5.97453269E-04
   6.89999983E-02  -6.26755704E-04
   7.99999982E-02  -6.38326397E-04
   9.09999982E-02  -6.23716449E-04
  0.101999998      -5.73939993E-04
  0.112999998      -4.80553193E-04
  0.123999998      -3.33003729E-04
  0.135000005      -1.17907824E-04
  0.145999998       1.76691974E-04
  0.157000005       5.61830588E-04
  0.167999998       1.05152070E-03
  0.179000005       1.65860227E-03
  0.189999998       2.39060144E-03
  0.201000005       3.25437193E-03
  0.211999997       4.25598817E-03
  0.223000005       5.39349159E-03
  0.233999997       6.65717712E-03
  0.245000005       8.03268049E-03
  0.256000012       9.49631631E-03
  0.266999990       1.10121500E-02
  0.277999997       1.25337774E-02
  0.289000005       1.40017020E-02
  0.300000012       1.53412335E-02
  0.310999990       1.64655149E-02
  0.321999997       1.72743667E-02
  0.333000004       1.76511779E-02
  0.344000012       1.74668860E-02
  0.354999989       1.65834222E-02
  0.365999997       1.48525406E-02
  0.377000004       1.21201742E-02
  0.388000011       8.23401194E-03
  0.398999989       3.04477545E-03
  0.409999996      -3.59089044E-03
  0.421000004      -1.17991241E-02
  0.432000011      -2.16795262E-02
  0.442999989      -3.33022140E-02
  0.453999996      -4.67016660E-02
  0.465000004      -6.18655980E-02
  0.476000011      -7.87269771E-02
  0.486999989      -9.71597657E-02
  0.497999996     -0.116972461
  0.509000003     -0.137901559
  0.519999981     -0.159610763
  0.531000018     -0.181692868
  0.541999996     -0.203669488
  0.552999973     -0.224994540
  0.564000010     -0.245065242
  0.574999988     -0.263234317
  0.586000025     -0.278822690
  0.597000003     -0.291138738
  0.607999980     -0.299499601
  0.619000018     -0.303251266
  0.629999995     -0.301795006
  0.640999973     -0.294615895
  0.652000010     -0.281305581
  0.662999988     -0.261584044
  0.674000025     -0.235324606
  0.685000002     -0.202571660
  0.695999980     -0.163550571
  0.707000017     -0.118677348
  0.717999995      -6.85624257E-02
  0.728999972      -1.40009299E-02
  0.740000010       4.40420657E-02
  0.750999987      0.104449391
  0.762000024      0.165980548
  0.773000002      0.227308139
  0.783999979      0.287054539
  0.795000017      0.343833655
  0.805999994      0.396297991
  0.816999972      0.443182677
  0.828000009      0.483347028
  0.838999987      0.515815854
  0.850000024      0.539812803
  0.861000001      0.554784179
  0.871999979      0.560419261
  0.883000016      0.556663096
  0.893999994      0.543713629
  0.904999971      0.522008717
  0.916000009      0.492211610
  0.926999986      0.455188662
  0.938000023      0.411972284
  0.949000001      0.363720298
  0.959999979      0.311678320
  0.971000016      0.257137746
  0.981999993      0.201389074
  0.992999971      0.145682365
   1.00399995       9.11945105E-02
   1.01499999       3.89950909E-02
   1.02600002      -9.98364016E-03
   1.03699994      -5.49634732E-02
   1.04799998      -9.53285545E-02
   1.05900002     -0.130633742
   1.07000005     -0.160607412
   1.08099997     -0.185141712
   1.09200001     -0.204276189
   1.10300004     -0.218183070
   1.11399996     -0.227151275
   1.12500000     -0.231563956
   1.13600004     -0.231873974
   1.14699996     -0.228582427
   1.15799999     -0.222218812
   1.16900003     -0.213320896
   1.17999995     -0.202416256
   1.19099998     -0.190007582
   1.20200002     -0.176562354
   1.21300006     -0.162505031
   1.22399998     -0.148210049
   1.23500001     -0.133997262
   1.24600005     -0.120132521
   1.25699997     -0.106829718
   1.26800001      -9.42511261E-02
   1.27900004      -8.25115591E-02
   1.28999996      -7.16861933E-02
   1.30100000      -6.18150309E-02
   1.31200004      -5.29061332E-02
   1.32299995      -4.49436307E-02
   1.33399999      -3.78949046E-02
   1.34500003      -3.17119397E-02
   1.35599995      -2.63342895E-02
   1.36699998      -2.16959417E-02
   1.37800002      -1.77290868E-02
   1.38900006      -1.43652512E-02
