 -0.800000012       0.00000000
 -0.788999975       0.00000000
 -0.777999997       0.00000000
 -0.767000020       8.02346960E-27
 -0.755999982      -3.30543904E-12
 -0.745000005      -7.23186233E-11
 -0.734000027       5.49395751E-10
 -0.722999990      -1.30755662E-09
 -0.712000012      -7.47663986E-10
 -0.700999975       9.16009846E-09
 -0.689999998      -1.08182237E-08
 -0.679000020      -2.31805739E-08
 -0.667999983       6.38031352E-08
 -0.657000005       1.15892025E-08
 -0.646000028      -1.88275862E-07
 -0.634999990       1.08340920E-07
 -0.624000013       3.55797454E-07
 -0.612999976      -4.23419550E-07
 -0.601999998      -4.04387123E-07
 -0.591000021       8.62441823E-07
 -0.579999983       4.14132462E-09
 -0.569000006      -9.86834607E-07
 -0.558000028       1.28847512E-06
 -0.546999991       1.05397948E-08
 -0.536000013      -3.82213057E-06
 -0.524999976       2.58965656E-06
 -0.513999999       7.26237249E-06
 -0.503000021      -6.05057585E-06
 -0.492000014      -9.46762520E-06
 -0.481000006       8.26458836E-06
 -0.469999999       5.91093340E-06
 -0.458999991      -8.16282591E-06
 -0.448000014       7.34564901E-06
 -0.437000006       8.28854627E-06
 -0.425999999      -2.62977792E-05
 -0.414999992      -1.09482380E-05
 -0.404000014       3.61385646E-05
 -0.393000007       8.55525650E-06
 -0.381999999      -2.53604740E-05
 -0.370999992       1.23590507E-05
 -0.360000014       2.79019423E-06
 -0.349000007      -4.56531670E-05
 -0.338000000       1.98000562E-05
 -0.326999992       6.90838569E-05
 -0.316000015      -4.59054099E-05
 -0.305000007      -8.76197009E-05
 -0.294000000       2.76314022E-05
 -0.282999992       1.78364953E-05
 -0.272000015      -7.34357236E-05
 -0.261000007      -2.99749058E-06
 -0.250000000       2.68582808E-05
 -0.238999993      -1.26150917E-04
 -0.228000000      -1.42565026E-04
 -0.216999993      -1.17224818E-05
 -0.206000000      -6.94066912E-05
 -0.194999993      -2.10827275E-04
 -0.184000000      -2.14126747E-04
 -0.172999993      -2.62624118E-04
 -0.162000000      -3.94184084E-04
 -0.150999993      -4.28442145E-04
 -0.140000001      -5.17448410E-04
 -0.128999993      -7.65503151E-04
 -0.118000001      -9.18678241E-04
 -0.107000001      -1.02570071E-03
  -9.60000008E-02  -1.35529076E-03
  -8.50000009E-02  -1.71610189E-03
  -7.40000010E-02  -1.91832625E-03
  -6.30000010E-02  -2.22585094E-03
  -5.20000011E-02  -2.68886448E-03
  -4.10000011E-02  -3.06089409E-03
  -2.99999993E-02  -3.42780864E-03
  -1.89999994E-02  -3.92209785E-03
  -8.00000038E-03  -4.31035645E-03
   3.00000003E-03  -4.50056046E-03
   1.40000004E-02  -4.68278956E-03
   2.50000004E-02  -4.80147032E-03
   3.59999985E-02  -4.61083883E-03
   4.69999984E-02  -4.06403840E-03
   5.79999983E-02  -3.18876025E-03
   6.89999983E-02  -1.85796351E-03
   7.99999982E-02   1.38209900E-04
   9.09999982E-02   2.92657269E-03
  0.101999998       6.50713220E-03
  0.112999998       1.09517751E-02
  0.123999998       1.64843351E-02
  0.135000005       2.31679566E-02
  0.145999998       3.08968294E-02
  0.157000005       3.97649743E-02
  0.167999998       4.98535633E-02
  0.179000005       6.08672798E-02
  0.189999998       7.25348070E-02
  0.201000005       8.47904310E-02
  0.211999997       9.72327143E-02
  0.223000005      0.109144643
  0.233999997      0.119962916
  0.245000005      0.129051775
  0.256000012      0.135430411
  0.266999990      0.138066158
  0.277999997      0.135888353
  0.289000005      0.127611920
  0.300000012      0.111992583
  0.310999990       8.78702179E-02
  0.321999997       5.38931862E-02
  0.333000004       8.75043590E-03
  0.344000012      -4.85341214E-02
  0.354999989     -0.118833996
  0.365999997     -0.202874571
  0.377000004     -0.300840616
  0.388000011     -0.412517756
  0.398999989     -0.537497699
  0.409999996     -0.674723804
  0.421000004     -0.822209179
  0.432000011     -0.977412522
  0.442999989      -1.13737094
  0.453999996      -1.29833639
  0.465000004      -1.45569777
  0.476000011      -1.60428214
  0.486999989      -1.73842895
  0.497999996      -1.85189521
  0.509000003      -1.93810427
  0.519999981      -1.99051714
  0.531000018      -2.00266814
  0.541999996      -1.96825397
  0.552999973      -1.88162625
  0.564000010      -1.73817396
  0.574999988      -1.53442836
  0.586000025      -1.26838553
  0.597000003     -0.939865589
  0.607999980     -0.550573170
  0.619000018     -0.104335330
  0.629999995      0.392521143
  0.640999973      0.931339622
  0.652000010       1.50144708
  0.662999988       2.09004283
  0.674000025       2.68237948
  0.685000002       3.26245546
  0.695999980       3.81337953
  0.707000017       4.31764555
  0.717999995       4.75802135
  0.728999972       5.11838722
  0.740000010       5.38410568
  0.750999987       5.54265690
  0.762000024       5.58448362
  0.773000002       5.50335598
  0.783999979       5.29661417
  0.795000017       4.96562147
  0.805999994       4.51587343
  0.816999972       3.95677471
  0.828000009       3.30150390
  0.838999987       2.56662416
  0.850000024       1.77128816
  0.861000001      0.936653018
  0.871999979       8.54015648E-02
  0.883000016     -0.759342909
  0.893999994      -1.57519948
  0.904999971      -2.34100580
  0.916000009      -3.03727055
  0.926999986      -3.64723468
  0.938000023      -4.15765667
  0.949000001      -4.55882502
  0.959999979      -4.84466171
  0.971000016      -5.01314211
  0.981999993      -5.06615019
  0.992999971      -5.00883961
   1.00399995      -4.84941435
   1.01499999      -4.59900665
   1.02600002      -4.27085400
   1.03699994      -3.87931967
   1.04799998      -3.43955302
   1.05900002      -2.96722078
   1.07000005      -2.47764182
   1.08099997      -1.98494315
   1.09200001      -1.50187087
   1.10300004      -1.03977323
   1.11399996     -0.608228922
   1.12500000     -0.214678735
   1.13600004      0.135522127
   1.14699996      0.438884616
   1.15799999      0.693723381
   1.16900003      0.900118649
   1.17999995       1.05968547
   1.19099998       1.17517269
   1.20200002       1.25012040
   1.21300006       1.28874147
   1.22399998       1.29580271
   1.23500001       1.27624977
   1.24600005       1.23489249
   1.25699997       1.17643070
   1.26800001       1.10536933
   1.27900004       1.02567279
   1.28999996      0.940743387
   1.30100000      0.853633583
   1.31200004      0.766881287
   1.32299995      0.682331562
   1.33399999      0.601445615
   1.34500003      0.525489867
   1.35599995      0.455278367
   1.36699998      0.391143054
   1.37800002      0.333205014
   1.38900006      0.281405896
