 -0.800000012       0.00000000
 -0.788999975       0.00000000
 -0.777999997       0.00000000
 -0.767000020       8.52472738E-26
 -0.755999982       1.41677742E-17
 -0.745000005      -2.66550194E-15
 -0.734000027       1.83451209E-14
 -0.722999990      -6.99837120E-14
 -0.712000012       2.21238392E-13
 -0.700999975       7.79788763E-14
 -0.689999998      -1.98219783E-12
 -0.679000020       3.37546115E-12
 -0.667999983      -4.39237318E-12
 -0.657000005      -3.34278980E-12
 -0.646000028       2.96197025E-11
 -0.634999990      -3.47560591E-11
 -0.624000013      -2.43421117E-11
 -0.612999976       1.36490791E-10
 -0.601999998      -2.45425791E-10
 -0.591000021      -3.51884528E-11
 -0.579999983       9.97351535E-10
 -0.569000006      -8.83519924E-10
 -0.558000028      -2.03414308E-09
 -0.546999991       3.11691850E-09
 -0.536000013       2.54713717E-09
 -0.524999976      -6.35028075E-09
 -0.513999999      -1.78225934E-09
 -0.503000021       9.66862590E-09
 -0.492000014       3.49990648E-10
 -0.481000006      -1.22514532E-08
 -0.469999999      -2.93710589E-09
 -0.458999991       1.71765429E-08
 -0.448000014       1.61546154E-08
 -0.437000006      -3.42882061E-08
 -0.425999999      -3.75633356E-08
 -0.414999992       7.27720675E-08
 -0.404000014       4.65288785E-08
 -0.393000007      -1.20524717E-07
 -0.381999999      -2.26855370E-08
 -0.370999992       1.42946234E-07
 -0.360000014      -3.28154037E-08
 -0.349000007      -9.92199034E-08
 -0.338000000       5.53111725E-08
 -0.326999992       1.27894237E-08
 -0.316000015       8.49255528E-08
 -0.305000007      -7.01794463E-08
 -0.294000000      -4.34919428E-07
 -0.282999992       5.34547894E-07
 -0.272000015       7.83678274E-07
 -0.261000007      -1.40706459E-06
 -0.250000000      -7.62717150E-07
 -0.238999993       2.13050976E-06
 -0.228000000       2.77717390E-07
 -0.216999993      -1.78066750E-06
 -0.206000000       4.76921578E-08
 -0.194999993      -1.75630532E-07
 -0.184000000       6.06403319E-07
 -0.172999993       3.29478826E-06
 -0.162000000      -2.04526987E-06
 -0.150999993      -5.98655197E-06
 -0.140000001       2.30325713E-06
 -0.128999993       5.90968330E-06
 -0.118000001       6.24730717E-07
 -0.107000001      -1.36659344E-06
  -9.60000008E-02  -6.89562739E-06
  -8.50000009E-02  -5.66227527E-06
  -7.40000010E-02   1.18197213E-05
  -6.30000010E-02   1.37433008E-05
  -5.20000011E-02  -1.18554381E-05
  -4.10000011E-02  -2.07916328E-05
  -2.99999993E-02   4.24815607E-06
  -1.89999994E-02   2.76663868E-05
  -8.00000038E-03   1.10106030E-05
   3.00000003E-03  -3.49410184E-05
   1.40000004E-02  -2.94713809E-05
   2.50000004E-02   3.03749657E-05
   3.59999985E-02   3.48828326E-05
   4.69999984E-02  -7.92657556E-06
   5.79999983E-02   1.30235605E-06
   6.89999983E-02  -1.33338344E-05
   7.99999982E-02  -6.73381874E-05
   9.09999982E-02   6.21321442E-06
  0.101999998       1.28525702E-04
  0.112999998       1.59974516E-05
  0.123999998      -1.54696667E-04
  0.135000005      -3.94061863E-05
  0.145999998       1.45507263E-04
  0.157000005       4.72045540E-05
  0.167999998      -1.06348467E-04
  0.179000005      -4.31200533E-05
  0.189999998       6.14537348E-05
  0.201000005      -1.25166953E-05
  0.211999997      -1.15073626E-05
  0.223000005       1.28240077E-04
  0.233999997       3.78756849E-05
  0.245000005      -2.59274675E-04
  0.256000012      -1.38989169E-04
  0.266999990       3.33738455E-04
  0.277999997       2.54338724E-04
  0.289000005      -3.71715898E-04
  0.300000012      -3.47249297E-04
  0.310999990       3.55672062E-04
  0.321999997       3.51475086E-04
  0.333000004      -3.59927566E-04
  0.344000012      -2.22856528E-04
  0.354999989       4.83009644E-04
  0.365999997       1.12272137E-04
  0.377000004      -6.07005612E-04
  0.388000011      -1.43221669E-05
  0.398999989       5.17133740E-04
  0.409999996      -1.30056840E-04
  0.421000004      -2.86902039E-04
  0.432000011       2.57530628E-04
  0.442999989       1.93307744E-04
  0.453999996      -2.40734124E-04
  0.465000004      -2.50454264E-04
  0.476000011      -7.52269625E-05
  0.486999989       3.59649770E-04
  0.497999996       2.25632539E-04
  0.509000003      -4.28774452E-04
  0.519999981      -6.62433595E-05
  0.531000018       6.93042122E-04
  0.541999996      -1.21039724E-04
  0.552999973      -1.01164554E-03
  0.564000010       1.99590344E-04
  0.574999988       1.04881905E-03
  0.586000025      -1.73240522E-04
  0.597000003      -8.75389611E-04
  0.607999980       1.55018293E-04
  0.619000018       5.03993884E-04
  0.629999995      -1.29123538E-04
  0.640999973      -1.62851502E-04
  0.652000010       3.55451280E-04
  0.662999988      -9.68702079E-05
  0.674000025      -7.95499422E-04
  0.685000002      -2.75860220E-04
  0.695999980       1.22177543E-03
  0.707000017       1.06495258E-03
  0.717999995      -1.08154432E-03
  0.728999972      -1.26898149E-03
  0.740000010       5.34265768E-04
  0.750999987       1.27662951E-03
  0.762000024      -4.15563380E-04
  0.773000002      -1.48906477E-03
  0.783999979       3.93329101E-04
  0.795000017       1.82942278E-03
  0.805999994      -5.19995810E-04
  0.816999972      -2.23636813E-03
  0.828000009       9.77510819E-04
  0.838999987       2.84588500E-03
  0.850000024      -6.94697606E-04
  0.861000001      -3.12679633E-03
  0.871999979      -3.00329586E-04
  0.883000016       1.83291815E-03
  0.893999994       1.20101240E-03
  0.904999971       8.74792313E-05
  0.916000009      -1.50868355E-03
  0.926999986      -1.61022623E-03
  0.938000023       7.48911290E-04
  0.949000001       1.88242865E-03
  0.959999979       9.57490352E-04
  0.971000016      -2.82917754E-04
  0.981999993      -1.71419524E-03
  0.992999971      -1.62291736E-03
   1.00399995       1.00311066E-03
   1.01499999       1.51622330E-03
   1.02600002      -6.04964443E-04
   1.03699994       3.84863197E-05
   1.04799998       1.34756311E-03
   1.05900002      -8.47321993E-04
   1.07000005      -1.83470605E-03
   1.08099997       7.53552653E-04
   1.09200001       1.11462956E-03
   1.10300004      -6.30272552E-04
   1.11399996      -1.64278390E-04
   1.12500000       3.58992635E-04
   1.13600004      -1.31714725E-04
   1.14699996       3.88541695E-04
   1.15799999       2.72351928E-04
   1.16900003      -9.08205169E-04
   1.17999995      -5.26598596E-04
   1.19099998       3.34761280E-04
   1.20200002      -1.46490507E-04
   1.21300006       5.19237074E-04
   1.22399998       1.46621279E-03
   1.23500001      -4.20051598E-04
   1.24600005      -1.70637690E-03
   1.25699997       3.21250322E-04
   1.26800001       1.07350620E-03
   1.27900004      -8.39505694E-04
   1.28999996      -9.93278809E-04
   1.30100000       5.52089885E-04
   1.31200004       7.69050617E-04
   1.32299995       4.76804329E-04
   1.33399999       5.51215664E-04
   1.34500003      -3.90094792E-04
   1.35599995      -1.45280024E-03
   1.36699998      -7.93689920E-04
   1.37800002       6.76372554E-04
   1.38900006       1.31204748E-03
