 -0.959999979       0.00000000
 -0.925000012       3.30063220E-21
 -0.889999986      -1.45800698E-11
 -0.855000019       1.69936547E-11
 -0.819999993       1.54968816E-10
 -0.785000026       1.00038991E-10
 -0.750000000       3.39885287E-10
 -0.714999974       1.14161083E-10
 -0.680000007      -6.40539888E-09
 -0.644999981       1.29202737E-08
 -0.610000014      -2.54964085E-08
 -0.574999988       2.26600640E-08
 -0.540000021      -1.93217335E-08
 -0.504999995      -7.34568886E-08
 -0.469999999       1.72632298E-07
 -0.435000002      -2.60780446E-08
 -0.400000006      -1.35319311E-07
 -0.365000010       1.82071332E-07
 -0.330000013       2.44636055E-07
 -0.294999987      -5.64694915E-07
 -0.259999990      -3.32643253E-07
 -0.224999994       1.49323807E-06
 -0.189999998      -3.37376355E-06
 -0.155000001       1.70123951E-06
 -0.119999997       2.76479841E-06
  -8.50000009E-02  -2.87776516E-07
  -5.00000007E-02  -1.42032582E-06
  -1.49999997E-02   1.88516105E-06
   1.99999996E-02  -6.56860129E-06
   5.49999997E-02   4.08239430E-06
   9.00000036E-02   1.07178494E-05
  0.125000000      -2.45467163E-05
  0.159999996       6.35114247E-06
  0.194999993       2.08786441E-05
  0.230000004      -1.17580721E-05
  0.264999986      -1.47487381E-05
  0.300000012       2.56354851E-05
  0.335000008       7.33501884E-06
  0.370000005      -3.12082047E-05
  0.405000001      -2.47432331E-06
  0.439999998       1.77936386E-06
  0.474999994       1.51410177E-05
  0.509999990       1.32302657E-05
  0.545000017      -2.46611162E-05
  0.579999983       3.47362402E-06
  0.615000010       3.79422527E-05
  0.649999976      -3.78181430E-05
  0.685000002      -3.40670304E-05
  0.720000029       4.91767278E-05
  0.754999995       2.18537934E-05
  0.790000021      -5.24527568E-05
  0.824999988       2.67653268E-05
  0.860000014       2.81407301E-05
  0.894999981      -4.12208828E-05
  0.930000007      -1.36838571E-05
  0.964999974       2.28473655E-05
   1.00000000      -1.21629173E-05
   1.03499997      -1.57982922E-05
   1.07000005       1.83035791E-05
   1.10500002       1.78013033E-05
   1.13999999      -2.51489996E-06
   1.17499995      -1.48066802E-05
   1.21000004       2.37068434E-06
   1.24500000       2.85774167E-05
   1.27999997      -5.55961424E-06
   1.31500006      -3.63259715E-05
   1.35000002       6.08825894E-06
   1.38499999       2.09900827E-05
   1.41999996      -1.78680784E-05
   1.45500004       3.58970010E-06
   1.49000001       2.46877262E-05
   1.52499998      -2.87150397E-05
   1.55999994      -1.91650106E-05
   1.59500003       4.96906359E-05
   1.63000000       1.03710763E-05
