 -0.800000012       0.00000000
 -0.788999975       0.00000000
 -0.777999997       0.00000000
 -0.767000020       1.55922203E-06
 -0.755999982      -5.96231848E-06
 -0.745000005      -3.74946321E-05
 -0.734000027       1.55634450E-04
 -0.722999990       7.34054811E-06
 -0.712000012      -6.48222398E-04
 -0.700999975       4.64937999E-04
 -0.689999998       1.37957511E-03
 -0.679000020      -1.80946407E-03
 -0.667999983      -1.65566709E-03
 -0.657000005       3.87346745E-03
 -0.646000028       5.81874920E-04
 -0.634999990      -5.19255130E-03
 -0.624000013       1.92205817E-03
 -0.612999976       2.81746872E-03
 -0.601999998      -4.71667899E-03
 -0.591000021       6.12746924E-03
 -0.579999983       6.43071206E-03
 -0.569000006      -2.06281338E-02
 -0.558000028      -5.89109259E-03
 -0.546999991       3.35041806E-02
 -0.536000013       1.15763524E-03
 -0.524999976      -3.60165983E-02
 -0.513999999       8.18867423E-03
 -0.503000021       2.46145613E-02
 -0.492000014      -1.61999520E-02
 -0.481000006       4.09479369E-04
 -0.469999999       1.73948985E-02
 -0.458999991      -3.31545435E-02
 -0.448000014      -1.81191899E-02
 -0.437000006       4.53524515E-02
 -0.425999999       5.19554410E-03
 -0.414999992      -3.77699658E-02
 -0.404000014       4.43326449E-03
 -0.393000007      -9.84768942E-03
 -0.381999999      -4.32287715E-02
 -0.370999992       2.03859210E-02
 -0.360000014       2.05938015E-02
 -0.349000007      -7.37308487E-02
 -0.338000000      -5.30668311E-02
 -0.326999992      -2.64267379E-04
 -0.316000015      -7.38889799E-02
 -0.305000007     -0.100816809
 -0.294000000      -5.04493266E-02
 -0.282999992     -0.127377659
 -0.272000015     -0.229530260
 -0.261000007     -0.196141034
 -0.250000000     -0.208844930
 -0.238999993     -0.341274083
 -0.228000000     -0.419926316
 -0.216999993     -0.469950378
 -0.206000000     -0.607357621
 -0.194999993     -0.751053393
 -0.184000000     -0.858599603
 -0.172999993      -1.02253830
 -0.162000000      -1.23879874
 -0.150999993      -1.43897474
 -0.140000001      -1.65213823
 -0.128999993      -1.92156625
 -0.118000001      -2.19553542
 -0.107000001      -2.43321896
  -9.60000008E-02  -2.69853663
  -8.50000009E-02  -3.00319600
  -7.40000010E-02  -3.24440503
  -6.30000010E-02  -3.43885326
  -5.20000011E-02  -3.66885877
  -4.10000011E-02  -3.80973458
  -2.99999993E-02  -3.78237200
  -1.89999994E-02  -3.74415135
  -8.00000038E-03  -3.65803409
   3.00000003E-03  -3.32790995
   1.40000004E-02  -2.84964395
   2.50000004E-02  -2.29608417
   3.59999985E-02  -1.48315799
   4.69999984E-02 -0.453463823
   5.79999983E-02  0.656923831
   6.89999983E-02   2.01570201
   7.99999982E-02   3.63333917
   9.09999982E-02   5.30459452
  0.101999998       7.13457441
  0.112999998       9.17537117
  0.123999998       11.1651564
  0.135000005       13.1500416
  0.145999998       15.2600250
  0.157000005       17.1769791
  0.167999998       18.7945290
  0.179000005       20.3388424
  0.189999998       21.6001263
  0.201000005       22.3256969
  0.211999997       22.7048569
  0.223000005       22.6654701
  0.233999997       21.9289303
  0.245000005       20.6427555
  0.256000012       18.8698063
  0.266999990       16.3774834
  0.277999997       13.2926941
  0.289000005       9.77272606
  0.300000012       5.60913897
  0.310999990      0.902831674
  0.321999997      -4.00948286
  0.333000004      -9.22634602
  0.344000012      -14.7601032
  0.354999989      -20.2072277
  0.365999997      -25.4815884
  0.377000004      -30.6964970
  0.388000011      -35.5453110
  0.398999989      -39.7189560
  0.409999996      -43.2833595
  0.421000004      -46.1599083
  0.432000011      -48.0375137
  0.442999989      -48.8500710
  0.453999996      -48.6870651
  0.465000004      -47.4158592
  0.476000011      -44.9045143
  0.486999989      -41.2973022
  0.497999996      -36.7000237
  0.509000003      -31.0302601
  0.519999981      -24.4356995
  0.531000018      -17.2498970
  0.541999996      -9.51672745
  0.552999973      -1.32194746
  0.564000010       6.86481714
  0.574999988       14.8385429
  0.586000025       22.6594276
  0.597000003       29.8926125
  0.607999980       36.1248512
  0.619000018       41.5331039
  0.629999995       45.9686928
  0.640999973       48.9311829
  0.652000010       50.5873222
  0.662999988       51.1701202
  0.674000025       50.2979889
  0.685000002       48.0245209
  0.695999980       44.8610954
  0.707000017       40.7082367
  0.717999995       35.5025063
  0.728999972       29.8095722
  0.740000010       23.8156719
  0.750999987       17.3807278
  0.762000024       10.9609785
  0.773000002       4.93259478
  0.783999979     -0.880449116
  0.795000017      -6.29556704
  0.805999994      -10.8894281
  0.816999972      -14.7747097
  0.828000009      -18.0585632
  0.838999987      -20.4488564
  0.850000024      -21.9502258
  0.861000001      -22.8347664
  0.871999979      -23.0456543
  0.883000016      -22.5009708
  0.893999994      -21.4528275
  0.904999971      -20.0704575
  0.916000009      -18.2886925
  0.926999986      -16.2088299
  0.938000023      -14.0764923
  0.949000001      -11.9130802
  0.959999979      -9.66776562
  0.971000016      -7.52765608
  0.981999993      -5.62647009
  0.992999971      -3.83752489
   1.00399995      -2.17987680
   1.01499999     -0.843958974
   1.02600002      0.252613783
   1.03699994       1.24804521
   1.04799998       1.98513722
   1.05900002       2.44014478
   1.07000005       2.83026838
   1.08099997       3.10292339
   1.09200001       3.12766385
   1.10300004       3.09270525
   1.11399996       3.07199574
   1.12500000       2.89148188
   1.13600004       2.63762021
   1.14699996       2.47720742
   1.15799999       2.26360583
   1.16900003       1.94941044
   1.17999995       1.73370183
   1.19099998       1.57680976
   1.20200002       1.32436430
   1.21300006       1.10409451
   1.22399998      0.997966051
   1.23500001      0.843873858
   1.24600005      0.651006401
   1.25699997      0.569183707
   1.26800001      0.510686934
   1.27900004      0.377650976
   1.28999996      0.300937921
   1.30100000      0.293041527
   1.31200004      0.214739412
   1.32299995      0.136397317
   1.33399999      0.152791247
   1.34500003      0.128678069
   1.35599995       4.95046489E-02
   1.36699998       6.55302480E-02
   1.37800002       9.33046117E-02
   1.38900006       2.14329343E-02
