 -0.959999979       0.00000000
 -0.925000012       0.00000000
 -0.889999986      -2.22193569E-10
 -0.855000019       5.18119381E-10
 -0.819999993      -1.33257250E-09
 -0.785000026       1.70837477E-08
 -0.750000000       1.42275889E-08
 -0.714999974      -5.22597894E-08
 -0.680000007       4.04084810E-09
 -0.644999981       6.15198985E-08
 -0.610000014      -3.19157074E-08
 -0.574999988       4.20854207E-07
 -0.540000021      -7.67214829E-07
 -0.504999995       4.04692145E-07
 -0.469999999       1.10945552E-06
 -0.435000002      -1.61228490E-06
 -0.400000006       4.83326176E-07
 -0.365000010      -5.70053817E-06
 -0.330000013       1.43083380E-05
 -0.294999987      -4.31727176E-06
 -0.259999990      -1.01884061E-05
 -0.224999994       4.39787163E-06
 -0.189999998       1.02503573E-05
 -0.155000001      -1.05171257E-05
 -0.119999997      -2.75310140E-05
  -8.50000009E-02   2.93722951E-05
  -5.00000007E-02   2.51564379E-05
  -1.49999997E-02  -1.27062776E-05
   1.99999996E-02  -2.44426046E-05
   5.49999997E-02   9.85984661E-06
   9.00000036E-02   1.11884056E-05
  0.125000000      -4.38748939E-05
  0.159999996       2.32332332E-05
  0.194999993       8.03523508E-05
  0.230000004      -4.22825142E-05
  0.264999986      -9.15368073E-05
  0.300000012       2.35521966E-05
  0.335000008       9.18403748E-05
  0.370000005       1.20065042E-05
  0.405000001      -4.46738413E-05
  0.439999998      -9.39425590E-05
  0.474999994      -2.36041251E-05
  0.509999990       5.40935835E-05
  0.545000017       1.32230969E-04
  0.579999983       5.63126669E-05
  0.615000010      -1.13125629E-04
  0.649999976      -1.25872262E-04
  0.685000002      -1.31550605E-05
  0.720000029       8.83898902E-05
  0.754999995       1.04585393E-04
  0.790000021       1.94770291E-05
  0.824999988      -9.80101904E-05
  0.860000014      -1.27558043E-04
  0.894999981       1.30967082E-05
  0.930000007       1.51462489E-04
  0.964999974       8.72499440E-05
   1.00000000      -6.59644793E-05
   1.03499997      -1.19375240E-04
   1.07000005      -3.24148896E-05
   1.10500002       6.78043580E-05
   1.13999999       7.96077584E-05
   1.17499995      -1.16435449E-05
   1.21000004      -6.80087978E-05
   1.24500000      -9.22134313E-06
   1.27999997       3.91982867E-05
   1.31500006       9.42971838E-06
   1.35000002      -8.21820140E-06
   1.38499999      -8.35920764E-06
   1.41999996      -1.82716703E-05
   1.45500004       6.66323103E-07
   1.49000001       2.15085020E-05
   1.52499998      -1.58530827E-06
   1.55999994      -2.44621015E-06
   1.59500003       2.27617711E-05
   1.63000000      -7.46556771E-06
