 -0.800000012       0.00000000
 -0.788999975       0.00000000
 -0.777999997       0.00000000
 -0.767000020       0.00000000
 -0.755999982      -3.30543904E-12
 -0.745000005      -7.23186303E-11
 -0.734000027       5.49395807E-10
 -0.722999990      -1.30755662E-09
 -0.712000012      -7.47664541E-10
 -0.700999975       9.16009757E-09
 -0.689999998      -1.08182219E-08
 -0.679000020      -2.31805757E-08
 -0.667999983       6.38031281E-08
 -0.657000005       1.15891909E-08
 -0.646000028      -1.88275877E-07
 -0.634999990       1.08340927E-07
 -0.624000013       3.55797567E-07
 -0.612999976      -4.23419579E-07
 -0.601999998      -4.04387237E-07
 -0.591000021       8.62442050E-07
 -0.579999983       4.14150181E-09
 -0.569000006      -9.86834948E-07
 -0.558000028       1.28847500E-06
 -0.546999991       1.05408633E-08
 -0.536000013      -3.82213011E-06
 -0.524999976       2.58965520E-06
 -0.513999999       7.26237386E-06
 -0.503000021      -6.05057403E-06
 -0.492000014      -9.46762884E-06
 -0.481000006       8.26458563E-06
 -0.469999999       5.91093567E-06
 -0.458999991      -8.16282318E-06
 -0.448000014       7.34564674E-06
 -0.437000006       8.28853990E-06
 -0.425999999      -2.62977774E-05
 -0.414999992      -1.09482253E-05
 -0.404000014       3.61385537E-05
 -0.393000007       8.55523194E-06
 -0.381999999      -2.53604376E-05
 -0.370999992       1.23590917E-05
 -0.360000014       2.79009828E-06
 -0.349000007      -4.56532252E-05
 -0.338000000       1.98002617E-05
 -0.326999992       6.90839079E-05
 -0.316000015      -4.59057628E-05
 -0.305000007      -8.76196427E-05
 -0.294000000       2.76318915E-05
 -0.282999992       1.78362043E-05
 -0.272000015      -7.34362256E-05
 -0.261000007      -2.99691851E-06
 -0.250000000       2.68584554E-05
 -0.238999993      -1.26151630E-04
 -0.228000000      -1.42564415E-04
 -0.216999993      -1.17220561E-05
 -0.206000000      -6.94087503E-05
 -0.194999993      -2.10827115E-04
 -0.184000000      -2.14122862E-04
 -0.172999993      -2.62625341E-04
 -0.162000000      -3.94190138E-04
 -0.150999993      -4.28439555E-04
 -0.140000001      -5.17439970E-04
 -0.128999993      -7.65507284E-04
 -0.118000001      -9.18688136E-04
 -0.107000001      -1.02569675E-03
  -9.60000008E-02  -1.35528424E-03
  -8.50000009E-02  -1.71610399E-03
  -7.40000010E-02  -1.91831996E-03
  -6.30000010E-02  -2.22584722E-03
  -5.20000011E-02  -2.68889824E-03
  -4.10000011E-02  -3.06091621E-03
  -2.99999993E-02  -3.42774438E-03
  -1.89999994E-02  -3.92204896E-03
  -8.00000038E-03  -4.31042723E-03
   3.00000003E-03  -4.50061169E-03
   1.40000004E-02  -4.68274811E-03
   2.50000004E-02  -4.80146613E-03
   3.59999985E-02  -4.61084442E-03
   4.69999984E-02  -4.06395737E-03
   5.79999983E-02  -3.18874698E-03
   6.89999983E-02  -1.85811229E-03
   7.99999982E-02   1.38147283E-04
   9.09999982E-02   2.92665698E-03
  0.101999998       6.50720345E-03
  0.112999998       1.09519484E-02
  0.123999998       1.64845046E-02
  0.135000005       2.31676847E-02
  0.145999998       3.08964867E-02
  0.157000005       3.97651680E-02
  0.167999998       4.98537458E-02
  0.179000005       6.08670563E-02
  0.189999998       7.25348219E-02
  0.201000005       8.47907439E-02
  0.211999997       9.72327963E-02
  0.223000005      0.109144472
  0.233999997      0.119962782
  0.245000005      0.129051700
  0.256000012      0.135430604
  0.266999990      0.138066843
  0.277999997      0.135888830
  0.289000005      0.127611324
  0.300000012      0.111991480
  0.310999990       8.78697187E-02
  0.321999997       5.38934544E-02
  0.333000004       8.75100959E-03
  0.344000012      -4.85338345E-02
  0.354999989     -0.118834428
  0.365999997     -0.202875465
  0.377000004     -0.300841093
  0.388000011     -0.412517458
  0.398999989     -0.537496924
  0.409999996     -0.674723208
  0.421000004     -0.822209179
  0.432000011     -0.977412760
  0.442999989      -1.13737071
  0.453999996      -1.29833591
  0.465000004      -1.45569777
  0.476000011      -1.60428202
  0.486999989      -1.73842835
  0.497999996      -1.85189605
  0.509000003      -1.93810582
  0.519999981      -1.99051666
  0.531000018      -2.00266743
  0.541999996      -1.96825504
  0.552999973      -1.88162768
  0.564000010      -1.73817348
  0.574999988      -1.53442550
  0.586000025      -1.26838112
  0.597000003     -0.939862490
  0.607999980     -0.550575376
  0.619000018     -0.104341835
  0.629999995      0.392517984
  0.640999973      0.931343257
  0.652000010       1.50145352
  0.662999988       2.09004664
  0.674000025       2.68237925
  0.685000002       3.26245093
  0.695999980       3.81337261
  0.707000017       4.31764078
  0.717999995       4.75802183
  0.728999972       5.11839199
  0.740000010       5.38411140
  0.750999987       5.54265833
  0.762000024       5.58447886
  0.773000002       5.50334978
  0.783999979       5.29661274
  0.795000017       4.96562290
  0.805999994       4.51587343
  0.816999972       3.95677233
  0.828000009       3.30150032
  0.838999987       2.56662369
  0.850000024       1.77129269
  0.861000001      0.936660290
  0.871999979       8.54064077E-02
  0.883000016     -0.759346485
  0.893999994      -1.57520258
  0.904999971      -2.34099889
  0.916000009      -3.03726482
  0.926999986      -3.64723873
  0.938000023      -4.15766430
  0.949000001      -4.55882978
  0.959999979      -4.84466934
  0.971000016      -5.01315117
  0.981999993      -5.06614685
  0.992999971      -5.00882721
   1.00399995      -4.84940720
   1.01499999      -4.59900570
   1.02600002      -4.27085543
   1.03699994      -3.87932539
   1.04799998      -3.43955779
   1.05900002      -2.96721530
   1.07000005      -2.47763300
   1.08099997      -1.98493969
   1.09200001      -1.50187027
   1.10300004      -1.03977585
   1.11399996     -0.608233452
   1.12500000     -0.214678481
   1.13600004      0.135521963
   1.14699996      0.438874394
   1.15799999      0.693712950
   1.16900003      0.900122702
   1.17999995       1.05969632
   1.19099998       1.17517567
   1.20200002       1.25011396
   1.21300006       1.28873110
   1.22399998       1.29579556
   1.23500001       1.27625096
   1.24600005       1.23490095
   1.25699997       1.17644286
   1.26800001       1.10538125
   1.27900004       1.02567732
   1.28999996      0.940737367
   1.30100000      0.853625178
   1.31200004      0.766877353
   1.32299995      0.682329834
   1.33399999      0.601445258
   1.34500003      0.525493443
   1.35599995      0.455284059
   1.36699998      0.391145438
   1.37800002      0.333200037
   1.38900006      0.281394571
