 -0.800000012       0.00000000
 -0.788999975       0.00000000
 -0.777999997       0.00000000
 -0.767000020       7.43048055E-26
 -0.755999982       1.74521716E-15
 -0.745000005      -1.37445995E-14
 -0.734000027       2.11085489E-14
 -0.722999990       3.19544365E-14
 -0.712000012      -1.63449373E-13
 -0.700999975       3.58794618E-14
 -0.689999998       5.42905456E-13
 -0.679000020       1.30977328E-13
 -0.667999983       2.20884888E-13
 -0.657000005       4.95871952E-13
 -0.646000028      -1.46097479E-12
 -0.634999990      -6.47835680E-13
 -0.624000013      -2.06157425E-13
 -0.612999976      -1.17763015E-12
 -0.601999998       1.80251452E-12
 -0.591000021       1.73551332E-12
 -0.579999983       4.64744476E-12
 -0.569000006       5.97552173E-12
 -0.558000028      -1.40001049E-11
 -0.546999991      -4.40412680E-12
 -0.536000013       3.67784345E-11
 -0.524999976      -2.93579362E-11
 -0.513999999      -8.38273340E-11
 -0.503000021       9.16107398E-11
 -0.492000014       1.13072468E-10
 -0.481000006      -1.78819751E-10
 -0.469999999      -6.11936959E-11
 -0.458999991       2.42316833E-10
 -0.448000014      -1.41787693E-10
 -0.437000006      -1.81297144E-10
 -0.425999999       4.70137762E-10
 -0.414999992      -5.46485704E-11
 -0.404000014      -5.98586680E-10
 -0.393000007       3.74963782E-10
 -0.381999999      -4.02530231E-11
 -0.370999992      -8.01836098E-11
 -0.360000014       1.81687132E-09
 -0.349000007      -2.27783903E-09
 -0.338000000      -3.82203824E-09
 -0.326999992       7.81156650E-09
 -0.316000015       2.72313971E-09
 -0.305000007      -1.51529793E-08
 -0.294000000       5.32489741E-09
 -0.282999992       2.05842490E-08
 -0.272000015      -1.88899634E-08
 -0.261000007      -1.57542122E-08
 -0.250000000       2.90356184E-08
 -0.238999993      -1.20285959E-08
 -0.228000000      -2.69781886E-08
 -0.216999993       5.82879807E-08
 -0.206000000       1.01041859E-08
 -0.194999993      -8.82199842E-08
 -0.184000000       2.08603730E-08
 -0.172999993       6.06785235E-08
 -0.162000000      -7.36688932E-08
 -0.150999993       3.25356524E-08
 -0.140000001       1.45552008E-07
 -0.128999993      -1.71683013E-07
 -0.118000001      -1.65385472E-07
 -0.107000001       3.06649952E-07
  -9.60000008E-02   9.71062235E-08
  -8.50000009E-02  -3.22732035E-07
  -7.40000010E-02   9.04886690E-08
  -6.30000010E-02   1.78588550E-07
  -5.20000011E-02  -3.24804347E-07
  -4.10000011E-02   6.02200245E-08
  -2.99999993E-02   3.53350543E-07
  -1.89999994E-02  -2.96784719E-07
  -8.00000038E-03  -2.02540889E-07
   3.00000003E-03   5.55874294E-07
   1.40000004E-02   3.05178389E-07
   2.50000004E-02  -3.80371034E-07
   3.59999985E-02  -3.73664847E-07
   4.69999984E-02  -1.25130583E-07
   5.79999983E-02  -9.30482642E-08
   6.89999983E-02   1.55588125E-07
   7.99999982E-02   7.26218730E-07
   9.09999982E-02   4.07444588E-07
  0.101999998      -5.04991306E-07
  0.112999998      -8.23387040E-07
  0.123999998      -9.16223939E-07
  0.135000005       1.62236642E-08
  0.145999998       1.33144476E-06
  0.157000005       3.68055737E-07
  0.167999998      -3.75283946E-07
  0.179000005       8.98720543E-07
  0.189999998       2.85118432E-07
  0.201000005      -2.03698892E-06
  0.211999997      -1.04285562E-06
  0.223000005       1.04099513E-06
  0.233999997       2.42530092E-07
  0.245000005      -6.13265740E-08
  0.256000012       1.84725445E-06
  0.266999990       1.70205976E-06
  0.277999997      -1.66715802E-06
  0.289000005      -2.83250233E-06
  0.300000012       6.28731243E-07
  0.310999990       2.54939118E-06
  0.321999997      -1.02876879E-06
  0.333000004      -3.36599965E-06
  0.344000012       1.21895516E-06
  0.354999989       4.03927697E-06
  0.365999997      -1.57987813E-06
  0.377000004      -1.92599623E-06
  0.388000011       3.74234310E-06
  0.398999989      -1.32251103E-06
  0.409999996      -5.28315786E-06
  0.421000004       4.38573306E-06
  0.432000011       4.84239581E-06
  0.442999989      -5.99743635E-06
  0.453999996      -4.26393080E-06
  0.465000004       3.87131377E-06
  0.476000011       1.28951297E-06
  0.486999989      -3.60741956E-06
  0.497999996      -5.27059854E-07
  0.509000003       3.94220388E-06
  0.519999981       2.40932604E-06
  0.531000018      -1.99370629E-06
  0.541999996      -2.11544580E-06
  0.552999973       2.11198630E-06
  0.564000010       4.18637683E-07
  0.574999988      -4.66408255E-06
  0.586000025       1.54866157E-07
  0.597000003       5.81297081E-06
  0.607999980      -2.06881055E-06
  0.619000018      -3.59513683E-06
  0.629999995       8.08824734E-06
  0.640999973       8.05834702E-07
  0.652000010      -1.32142432E-05
  0.662999988      -1.64140681E-06
  0.674000025       9.31162958E-06
  0.685000002       1.22214260E-06
  0.695999980       1.47424328E-06
  0.707000017       8.52805533E-06
  0.717999995      -3.43979150E-06
  0.728999972      -1.42955851E-05
  0.740000010      -4.04896582E-06
  0.750999987       3.14957924E-06
  0.762000024       4.62563094E-06
  0.773000002       8.54472910E-06
  0.783999979       7.48867194E-07
  0.795000017      -1.02421272E-05
  0.805999994      -2.51066649E-06
  0.816999972       8.90995307E-06
  0.828000009       3.95250891E-06
  0.838999987      -3.64803464E-06
  0.850000024      -1.79468827E-06
  0.861000001       1.60188449E-06
  0.871999979       4.20698001E-07
  0.883000016      -4.20810557E-06
  0.893999994      -4.21760888E-06
  0.904999971       2.63636252E-06
  0.916000009       2.64265350E-06
  0.926999986      -4.98334202E-06
  0.938000023      -1.59793331E-06
  0.949000001       9.39241818E-06
  0.959999979       4.64609548E-06
  0.971000016      -6.53104280E-06
  0.981999993      -1.40977227E-06
  0.992999971       3.67474968E-06
   1.00399995      -4.91906667E-06
   1.01499999      -3.50060441E-06
   1.02600002       9.14251268E-06
   1.03699994       3.32809009E-06
   1.04799998      -1.10237543E-05
   1.05900002      -3.31443357E-06
   1.07000005       9.86918167E-06
   1.08099997       2.35117113E-06
   1.09200001      -7.42043903E-06
   1.10300004       5.93235043E-08
   1.11399996       5.34256014E-06
   1.12500000      -4.54493556E-06
   1.13600004      -6.27544432E-06
   1.14699996       8.60245746E-06
   1.15799999       9.63078128E-06
   1.16900003      -9.41751478E-06
   1.17999995      -1.16041629E-05
   1.19099998       6.16228181E-06
   1.20200002       6.66278765E-06
   1.21300006      -4.36628807E-06
   1.22399998       3.63083200E-06
   1.23500001       1.01357691E-05
   1.24600005      -5.74647993E-06
   1.25699997      -1.12920588E-05
   1.26800001       3.26093823E-06
   1.27900004       4.30843602E-06
   1.28999996      -4.60569254E-06
   1.30100000       4.74105292E-07
   1.31200004       4.69278984E-06
   1.32299995      -1.37524182E-06
   1.33399999      -5.01561658E-07
   1.34500003       1.22928873E-06
   1.35599995      -5.81170798E-06
   1.36699998      -2.88291676E-06
   1.37800002       7.92316405E-06
   1.38900006       3.86108150E-06
