 -0.800000012       0.00000000
 -0.788999975       0.00000000
 -0.777999997       1.28404038E-20
 -0.767000020      -1.52924660E-20
 -0.755999982       9.64104447E-13
 -0.745000005      -2.48683951E-12
 -0.734000027      -7.95386153E-12
 -0.722999990       3.40184894E-11
 -0.712000012      -8.33649885E-11
 -0.700999975      -8.56362620E-11
 -0.689999998       3.33754191E-10
 -0.679000020       5.00163314E-11
 -0.667999983      -6.19939211E-10
 -0.657000005       1.02356157E-09
 -0.646000028      -5.74279790E-10
 -0.634999990      -1.44725854E-09
 -0.624000013       3.15771825E-10
 -0.612999976       6.03248917E-09
 -0.601999998      -3.67456532E-09
 -0.591000021      -1.29847990E-08
 -0.579999983       1.49643942E-08
 -0.569000006       1.52863997E-08
 -0.558000028      -3.59900270E-08
 -0.546999991      -2.60251376E-09
 -0.536000013       6.34866666E-08
 -0.524999976      -3.76014349E-08
 -0.513999999      -7.44174073E-08
 -0.503000021       7.23345295E-08
 -0.492000014       7.41332542E-08
 -0.481000006      -6.24973637E-08
 -0.469999999      -9.50938315E-08
 -0.458999991       8.32504021E-09
 -0.448000014       2.26711947E-07
 -0.437000006       3.12665946E-08
 -0.425999999      -5.88670673E-07
 -0.414999992       4.49314861E-08
 -0.404000014       1.18207879E-06
 -0.393000007      -3.65176248E-07
 -0.381999999      -1.68991323E-06
 -0.370999992       7.24618872E-07
 -0.360000014       1.61464936E-06
 -0.349000007      -6.46040590E-08
 -0.338000000      -1.38184964E-06
 -0.326999992      -1.80106588E-06
 -0.316000015       1.71247279E-06
 -0.305000007       3.47985178E-06
 -0.294000000      -3.84644682E-06
 -0.282999992      -7.17275952E-07
 -0.272000015       6.09803601E-06
 -0.261000007      -8.88064551E-06
 -0.250000000      -5.62331070E-06
 -0.238999993       2.33974934E-05
 -0.228000000       8.75857552E-07
 -0.216999993      -3.48357535E-05
 -0.206000000       7.64095967E-06
 -0.194999993       3.28143760E-05
 -0.184000000      -2.05925608E-05
 -0.172999993      -8.72397050E-06
 -0.162000000       2.94048241E-05
 -0.150999993      -2.80671993E-05
 -0.140000001      -2.93238591E-05
 -0.128999993       6.74444891E-05
 -0.118000001       1.45752520E-05
 -0.107000001      -8.43182061E-05
  -9.60000008E-02  -3.20695835E-06
  -8.50000009E-02   8.04182127E-05
  -7.40000010E-02  -1.32415435E-05
  -6.30000010E-02  -6.04653505E-05
  -5.20000011E-02   2.02817482E-05
  -4.10000011E-02   6.25648172E-05
  -2.99999993E-02  -9.34067248E-06
  -1.89999994E-02  -7.64740616E-05
  -8.00000038E-03  -4.19187818E-05
   3.00000003E-03   5.47869822E-05
   1.40000004E-02   1.51373970E-04
   2.50000004E-02  -5.02248186E-05
   3.59999985E-02  -2.15141990E-04
   4.69999984E-02   7.65253426E-05
   5.79999983E-02   2.48684140E-04
   6.89999983E-02  -1.72525193E-04
   7.99999982E-02  -2.42188908E-04
   9.09999982E-02   2.96427839E-04
  0.101999998       1.30161483E-04
  0.112999998      -3.22616455E-04
  0.123999998      -2.42995593E-05
  0.135000005       2.65414710E-04
  0.145999998       1.41934606E-05
  0.157000005      -1.28600514E-04
  0.167999998      -7.92911815E-05
  0.179000005      -6.52873350E-05
  0.189999998       1.82442134E-04
  0.201000005       6.04171582E-05
  0.211999997      -1.11805268E-04
  0.223000005      -6.19701386E-05
  0.233999997       1.45745944E-04
  0.245000005       1.31330617E-05
  0.256000012      -1.35923678E-04
  0.266999990      -1.52583016E-04
  0.277999997       1.73424007E-04
  0.289000005       3.83811799E-04
  0.300000012      -3.66492401E-04
  0.310999990      -1.84595861E-04
  0.321999997       5.21498790E-04
  0.333000004      -5.34909021E-04
  0.344000012      -1.26129962E-04
  0.354999989       3.35336139E-04
  0.365999997       5.68836462E-04
  0.377000004      -3.90366855E-04
  0.388000011      -8.91582400E-04
  0.398999989       8.16215819E-04
  0.409999996       2.18366302E-04
  0.421000004      -7.81565090E-04
  0.432000011       5.61515510E-04
  0.442999989       9.31989052E-04
  0.453999996      -1.41435408E-03
  0.465000004      -5.96006867E-04
  0.476000011       1.35864224E-03
  0.486999989       7.44136269E-05
  0.497999996      -8.40477529E-04
  0.509000003       3.22322274E-04
  0.519999981       4.63332603E-04
  0.531000018      -9.77159943E-04
  0.541999996       5.38329536E-04
  0.552999973       2.91920122E-04
  0.564000010      -4.03341895E-04
  0.574999988       3.16682359E-04
  0.586000025       7.66260142E-04
  0.597000003      -1.34706940E-03
  0.607999980       3.86701031E-05
  0.619000018       1.14197675E-04
  0.629999995      -6.30458308E-05
  0.640999973       4.56899113E-04
  0.652000010       2.54984741E-04
  0.662999988       5.67400362E-04
  0.674000025      -1.02483970E-03
  0.685000002      -1.26431079E-03
  0.695999980       9.40228114E-04
  0.707000017       1.69006223E-03
  0.717999995      -9.96844959E-04
  0.728999972      -1.54079916E-03
  0.740000010       1.39213249E-03
  0.750999987       8.19304609E-04
  0.762000024      -1.61382230E-03
  0.773000002      -8.61940571E-05
  0.783999979       1.52793434E-03
  0.795000017      -1.36329996E-04
  0.805999994      -9.56277770E-04
  0.816999972      -7.26911414E-04
  0.828000009       3.51778290E-04
  0.838999987       1.45855674E-03
  0.850000024       7.21112301E-04
  0.861000001      -2.03759200E-03
  0.871999979      -1.44017758E-04
  0.883000016       1.26685295E-03
  0.893999994      -8.66846298E-04
  0.904999971      -4.95079963E-04
  0.916000009       1.70461088E-03
  0.926999986      -8.49126605E-04
  0.938000023      -1.65594381E-03
  0.949000001       1.84371136E-03
  0.959999979       1.25152187E-03
  0.971000016      -1.72342034E-03
  0.981999993      -1.91183120E-04
  0.992999971       1.49263814E-03
   1.00399995      -1.38444582E-03
   1.01499999      -1.47622288E-03
   1.02600002       1.72212406E-03
   1.03699994       1.08203269E-03
   1.04799998      -1.17762259E-03
   1.05900002      -1.56525493E-04
   1.07000005       1.11727451E-03
   1.08099997      -2.26746750E-04
   1.09200001      -1.37833063E-03
   1.10300004      -1.51707005E-04
   1.11399996       9.81647056E-04
   1.12500000       2.24109008E-05
   1.13600004      -3.27554182E-04
   1.14699996       1.19938026E-03
   1.15799999       4.23368649E-04
   1.16900003      -2.00488302E-03
   1.17999995      -4.37871553E-04
   1.19099998       1.42902450E-03
   1.20200002      -1.17394829E-03
   1.21300006      -8.15595849E-04
   1.22399998       3.22252186E-03
   1.23500001       5.71177981E-04
   1.24600005      -3.65063571E-03
   1.25699997       6.61935541E-04
   1.26800001       2.78731389E-03
   1.27900004      -2.78057228E-03
   1.28999996      -1.72619114E-03
   1.30100000       4.16129036E-03
   1.31200004       5.21999609E-04
   1.32299995      -3.90064577E-03
   1.33399999       1.15737342E-03
   1.34500003       2.66346172E-03
   1.35599995      -2.84034060E-03
   1.36699998      -1.54461979E-03
   1.37800002       3.39862844E-03
   1.38900006       5.60454500E-04
