 -0.959999979       0.00000000
 -0.925000012       1.31975465E-19
 -0.889999986      -1.96678069E-12
 -0.855000019      -1.81887179E-11
 -0.819999993       5.59291259E-11
 -0.785000026       7.44718662E-11
 -0.750000000       4.76822914E-10
 -0.714999974      -3.19583671E-09
 -0.680000007       2.90561175E-09
 -0.644999981       7.74369457E-11
 -0.610000014       1.25529622E-08
 -0.574999988      -3.62605839E-08
 -0.540000021       4.09048653E-08
 -0.504999995       3.37927482E-08
 -0.469999999      -7.99954449E-08
 -0.435000002      -2.16197293E-07
 -0.400000006       4.42121575E-07
 -0.365000010      -1.36349003E-08
 -0.330000013       3.45420176E-07
 -0.294999987      -2.49815253E-06
 -0.259999990       2.85147576E-06
 -0.224999994       1.70316446E-06
 -0.189999998      -4.94388041E-06
 -0.155000001       1.89670891E-06
 -0.119999997       8.48447087E-07
  -8.50000009E-02  -4.11993415E-06
  -5.00000007E-02   1.21428138E-05
  -1.49999997E-02  -4.19560820E-06
   1.99999996E-02  -1.87392889E-05
   5.49999997E-02   8.22981474E-06
   9.00000036E-02   2.46101827E-05
  0.125000000      -1.59212032E-05
  0.159999996      -1.38709620E-05
  0.194999993       1.21599514E-05
  0.230000004       2.98894042E-06
  0.264999986      -1.19030631E-06
  0.300000012       1.03936327E-05
  0.335000008      -1.50683109E-05
  0.370000005      -1.97674581E-05
  0.405000001       2.76259088E-05
  0.439999998       8.32222122E-06
  0.474999994      -4.82196338E-05
  0.509999990       4.36726586E-05
  0.545000017       1.21159728E-05
  0.579999983      -3.37569618E-05
  0.615000010       3.63430372E-05
  0.649999976      -2.44539788E-05
  0.685000002      -4.28336098E-05
  0.720000029       4.85983219E-05
  0.754999995       9.58595047E-06
  0.790000021      -2.83822592E-05
  0.824999988       3.14639728E-05
  0.860000014      -4.71743697E-05
  0.894999981       2.36231554E-05
  0.930000007       5.78505715E-05
  0.964999974      -2.49373225E-05
   1.00000000      -7.41328840E-05
   1.03499997       4.91833198E-05
   1.07000005       1.69275281E-05
   1.10500002      -1.09500434E-04
   1.13999999       6.23501910E-05
   1.17499995       1.19713943E-04
   1.21000004      -6.84242405E-05
   1.24500000      -4.71683015E-05
   1.27999997       9.45167703E-05
   1.31500006      -4.63816687E-05
   1.35000002      -1.37349518E-04
   1.38499999       1.02444879E-04
   1.41999996       6.78011857E-05
   1.45500004      -1.28146698E-04
   1.49000001       5.95196470E-05
   1.52499998       1.26804545E-04
   1.55999994      -1.25953506E-04
   1.59500003      -9.29311864E-05
   1.63000000       1.26278726E-04
