 -0.800000012       0.00000000
 -0.788999975       0.00000000
 -0.777999997       2.57714648E-22
 -0.767000020       2.66918320E-22
 -0.755999982      -4.70603501E-15
 -0.745000005      -1.41001145E-14
 -0.734000027      -3.61712635E-16
 -0.722999990      -1.32817612E-13
 -0.712000012       2.35439299E-13
 -0.700999975       1.19178552E-13
 -0.689999998       5.42599345E-14
 -0.679000020      -7.12750375E-14
 -0.667999983      -1.94349875E-12
 -0.657000005       1.83537755E-12
 -0.646000028       1.03466810E-11
 -0.634999990      -8.73785246E-12
 -0.624000013      -3.16759223E-11
 -0.612999976       2.98275085E-11
 -0.601999998       5.29415782E-11
 -0.591000021      -6.72670392E-11
 -0.579999983      -5.40396825E-11
 -0.569000006       1.00944982E-10
 -0.558000028       9.68851128E-12
 -0.546999991      -9.31866806E-11
 -0.536000013       1.18416346E-10
 -0.524999976       6.05912751E-11
 -0.513999999      -2.53008586E-10
 -0.503000021      -8.16743201E-11
 -0.492000014       1.71261186E-10
 -0.481000006       1.06011901E-10
 -0.469999999       6.80019652E-11
 -0.458999991      -3.36838630E-12
 -0.448000014       4.80788354E-10
 -0.437000006       9.74352977E-12
 -0.425999999      -3.15046100E-09
 -0.414999992      -1.23066379E-09
 -0.404000014       6.96385616E-09
 -0.393000007       3.97294952E-09
 -0.381999999      -7.45531104E-09
 -0.370999992      -6.11883078E-09
 -0.360000014       5.67432101E-10
 -0.349000007       7.38822159E-09
 -0.338000000       1.38479548E-08
 -0.326999992      -1.20492443E-08
 -0.316000015      -2.93273708E-08
 -0.305000007       2.43696086E-08
 -0.294000000       2.95776541E-08
 -0.282999992      -4.32639524E-08
 -0.272000015       2.83152102E-09
 -0.261000007       5.72619072E-08
 -0.250000000      -6.38931184E-08
 -0.238999993      -4.36846364E-08
 -0.228000000       1.26527013E-07
 -0.216999993       8.23643376E-09
 -0.206000000      -1.42556701E-07
 -0.194999993      -1.28673374E-08
 -0.184000000       4.62721630E-08
 -0.172999993       7.86277425E-08
 -0.162000000       1.49784114E-07
 -0.150999993      -1.64384247E-07
 -0.140000001      -3.05650786E-07
 -0.128999993       2.04384449E-07
 -0.118000001       1.99722251E-07
 -0.107000001      -2.55749200E-07
  -9.60000008E-02   2.18963322E-07
  -8.50000009E-02   3.65233660E-07
  -7.40000010E-02  -6.71302075E-07
  -6.30000010E-02  -4.06352626E-07
  -5.20000011E-02   8.51963136E-07
  -4.10000011E-02   3.18815921E-07
  -2.99999993E-02  -4.44990263E-07
  -1.89999994E-02  -2.61970867E-09
  -8.00000038E-03  -2.75969143E-07
   3.00000003E-03  -2.66674249E-07
   1.40000004E-02   7.28141742E-07
   2.50000004E-02   6.67700846E-08
   3.59999985E-02  -6.78835761E-07
   4.69999984E-02   2.69250705E-07
   5.79999983E-02   6.41284430E-08
   6.89999983E-02  -6.13885447E-07
   7.99999982E-02   5.22655114E-07
   9.09999982E-02   7.25189352E-07
  0.101999998      -3.93828003E-07
  0.112999998      -5.62949651E-07
  0.123999998      -4.82537246E-07
  0.135000005      -4.95186825E-09
  0.145999998       6.77315768E-07
  0.157000005       4.94732092E-07
  0.167999998       3.74955448E-07
  0.179000005       9.05743093E-07
  0.189999998       7.01582366E-08
  0.201000005      -2.19079880E-06
  0.211999997      -2.38202938E-06
  0.223000005       7.86443991E-07
  0.233999997       2.31885292E-06
  0.245000005       5.03833633E-07
  0.256000012       1.05605898E-06
  0.266999990       1.14390343E-06
  0.277999997      -1.74339300E-06
  0.289000005      -2.16110561E-06
  0.300000012      -1.07186359E-07
  0.310999990       1.12927609E-07
  0.321999997      -3.62356161E-07
  0.333000004       1.69866235E-06
  0.344000012      -4.02805000E-07
  0.354999989      -1.82298027E-06
  0.365999997       1.92275957E-06
  0.377000004      -1.05831907E-06
  0.388000011      -3.46147181E-06
  0.398999989       4.04150978E-06
  0.409999996       4.80687913E-06
  0.421000004      -4.85077135E-06
  0.432000011      -3.81418477E-06
  0.442999989       4.38639972E-06
  0.453999996       7.56221841E-09
  0.465000004      -3.34653214E-06
  0.476000011       5.39367420E-06
  0.486999989       4.61189302E-06
  0.497999996      -4.47493130E-06
  0.509000003      -2.69513794E-06
  0.519999981       1.50883818E-06
  0.531000018      -4.46220474E-06
  0.541999996      -4.73594218E-06
  0.552999973       6.41483666E-06
  0.564000010       7.06195760E-06
  0.574999988      -5.36529251E-06
  0.586000025      -7.94084190E-06
  0.597000003       2.47579487E-06
  0.607999980       5.27613065E-06
  0.619000018       7.99507461E-07
  0.629999995       4.67694328E-09
  0.640999973       2.61474020E-06
  0.652000010       2.18080186E-06
  0.662999988      -6.87344573E-06
  0.674000025      -2.78383845E-06
  0.685000002       1.16568772E-05
  0.695999980       2.51526421E-06
  0.707000017      -1.25022698E-05
  0.717999995      -4.24849077E-06
  0.728999972       5.95201845E-06
  0.740000010       1.24373219E-06
  0.750999987      -1.13939882E-06
  0.762000024       9.12373366E-07
  0.773000002       1.40580838E-07
  0.783999979      -8.36842730E-07
  0.795000017      -2.23610323E-06
  0.805999994      -3.23308285E-07
  0.816999972       7.22325967E-06
  0.828000009       2.29464945E-06
  0.838999987      -7.51326479E-06
  0.850000024       2.06628692E-06
  0.861000001       4.44204989E-06
  0.871999979      -7.59323802E-06
  0.883000016      -5.36795483E-07
  0.893999994       7.52224514E-06
  0.904999971      -8.91515265E-06
  0.916000009      -1.27546964E-05
  0.926999986       8.85211739E-06
  0.938000023       1.30921635E-05
  0.949000001       1.68868542E-06
  0.959999979       4.33670448E-06
  0.971000016       3.65779806E-06
  0.981999993      -1.50908645E-05
  0.992999971      -2.13527255E-05
   1.00399995      -1.90490027E-07
   1.01499999       1.43386833E-05
   1.02600002       4.44607758E-06
   1.03699994       8.47521335E-07
   1.04799998       1.29162390E-05
   1.05900002       5.44190743E-06
   1.07000005      -1.52415323E-05
   1.08099997      -5.52563733E-06
   1.09200001       1.05970603E-05
   1.10300004      -6.17524393E-06
   1.11399996      -1.07584501E-05
   1.12500000       1.61441985E-05
   1.13600004       1.06112575E-05
   1.14699996      -1.88021531E-05
   1.15799999      -4.69180668E-06
   1.16900003       1.66669543E-05
   1.17999995      -7.17136845E-06
   1.19099998      -1.90291103E-05
   1.20200002       1.04588144E-05
   1.21300006       1.69587001E-05
   1.22399998      -8.16426564E-06
   1.23500001      -7.15159695E-06
   1.24600005       1.37359639E-05
   1.25699997       5.98996348E-06
   1.26800001      -1.71489828E-05
   1.27900004      -1.16314886E-05
   1.28999996       8.65250513E-06
   1.30100000       3.80094093E-06
   1.31200004      -7.51200878E-06
   1.32299995       7.29794237E-06
   1.33399999       1.56827882E-05
   1.34500003      -6.14974579E-06
   1.35599995      -1.39402191E-05
   1.36699998       3.14541990E-06
   1.37800002       2.69810471E-06
   1.38900006      -6.32473757E-06
