 -0.959999979       0.00000000
 -0.925000012      -1.18841979E-06
 -0.889999986      -1.24819226E-05
 -0.855000019       4.90194225E-06
 -0.819999993      -1.44862597E-05
 -0.785000026      -5.94253615E-05
 -0.750000000      -6.74798721E-05
 -0.714999974      -2.02410141E-04
 -0.680000007      -3.02691333E-04
 -0.644999981      -2.14544227E-04
 -0.610000014      -7.01395795E-04
 -0.574999988      -1.64844841E-03
 -0.540000021      -1.64268655E-03
 -0.504999995      -1.36561366E-03
 -0.469999999      -2.23536743E-03
 -0.435000002      -2.40119593E-03
 -0.400000006      -8.98408995E-04
 -0.365000010      -9.08504298E-04
 -0.330000013      -4.20363713E-03
 -0.294999987      -1.24329142E-02
 -0.259999990      -3.51004042E-02
 -0.224999994      -8.55006948E-02
 -0.189999998     -0.173964262
 -0.155000001     -0.311878920
 -0.119999997     -0.506936669
  -8.50000009E-02 -0.744898200
  -5.00000007E-02 -0.982812047
  -1.49999997E-02  -1.15223873
   1.99999996E-02  -1.15844369
   5.49999997E-02 -0.894923210
   9.00000036E-02 -0.283514261
  0.125000000      0.687989354
  0.159999996       1.94382834
  0.194999993       3.30798578
  0.230000004       4.52056122
  0.264999986       5.29595470
  0.300000012       5.39327049
  0.335000008       4.67233706
  0.370000005       3.13343954
  0.405000001      0.928044319
  0.439999998      -1.67333615
  0.474999994      -4.33435488
  0.509999990      -6.70151997
  0.545000017      -8.45229340
  0.579999983      -9.33925343
  0.615000010      -9.21664333
  0.649999976      -8.05052662
  0.685000002      -5.92407846
  0.720000029      -3.03407192
  0.754999995      0.323068857
  0.790000021       3.77062368
  0.824999988       6.87746954
  0.860000014       9.19989300
  0.894999981       10.3497362
  0.930000007       10.0855637
  0.964999974       8.40074348
   1.00000000       5.57125473
   1.03499997       2.13321519
   1.07000005      -1.22935987
   1.10500002      -3.86745763
   1.13999999      -5.35371685
   1.17499995      -5.59462976
   1.21000004      -4.82620668
   1.24500000      -3.49598598
   1.27999997      -2.07971716
   1.31500006     -0.917421341
   1.35000002     -0.141525313
   1.38499999      0.289491296
   1.41999996      0.492727101
   1.45500004      0.562249482
   1.49000001      0.525521994
   1.52499998      0.369949341
   1.55999994      0.108187526
   1.59500003     -0.173720106
   1.63000000     -0.329352498
