 -0.800000012       0.00000000
 -0.788999975       0.00000000
 -0.777999997       0.00000000
 -0.767000020       0.00000000
 -0.755999982      -1.30535860E-11
 -0.745000005       6.25098723E-11
 -0.734000027      -2.54223420E-10
 -0.722999990       4.68938721E-10
 -0.712000012       5.05171793E-10
 -0.700999975      -3.56243990E-09
 -0.689999998       3.95571798E-09
 -0.679000020       7.21774684E-09
 -0.667999983      -2.33126194E-08
 -0.657000005       6.26161212E-09
 -0.646000028       6.15046716E-08
 -0.634999990      -7.16299624E-08
 -0.624000013      -9.81995143E-08
 -0.612999976       2.00308051E-07
 -0.601999998       1.02556527E-07
 -0.591000021      -2.78603153E-07
 -0.579999983      -1.19521616E-07
 -0.569000006      -7.48078435E-08
 -0.558000028       3.75728462E-07
 -0.546999991       1.59406943E-06
 -0.536000013      -1.18636922E-06
 -0.524999976      -5.16413184E-06
 -0.513999999       2.42318515E-06
 -0.503000021       1.09521525E-05
 -0.492000014      -2.82992551E-06
 -0.481000006      -1.67531998E-05
 -0.469999999       4.60855858E-07
 -0.458999991       1.67294038E-05
 -0.448000014       4.34212825E-06
 -0.437000006      -3.82204507E-06
 -0.425999999      -5.18019215E-06
 -0.414999992      -2.14485644E-05
 -0.404000014      -7.05247749E-06
 -0.393000007       4.28270760E-05
 -0.381999999       2.82816363E-05
 -0.370999992      -4.18865784E-05
 -0.360000014      -3.68737456E-05
 -0.349000007       2.79780124E-05
 -0.338000000       3.45856715E-05
 -0.326999992      -8.37338575E-06
 -0.316000015      -4.48861610E-05
 -0.305000007      -6.49621288E-05
 -0.294000000      -3.83661827E-05
 -0.282999992      -1.19159131E-05
 -0.272000015      -9.50051253E-05
 -0.261000007      -1.87735743E-04
 -0.250000000      -1.37991781E-04
 -0.238999993      -1.13908842E-04
 -0.228000000      -2.93444871E-04
 -0.216999993      -4.97215951E-04
 -0.206000000      -5.82785404E-04
 -0.194999993      -6.93202310E-04
 -0.184000000      -9.09762573E-04
 -0.172999993      -1.22343248E-03
 -0.162000000      -1.72262127E-03
 -0.150999993      -2.36278586E-03
 -0.140000001      -2.97092809E-03
 -0.128999993      -3.67200887E-03
 -0.118000001      -4.74884314E-03
 -0.107000001      -6.18975703E-03
  -9.60000008E-02  -7.88358506E-03
  -8.50000009E-02  -9.91006009E-03
  -7.40000010E-02  -1.23557486E-02
  -6.30000010E-02  -1.52938208E-02
  -5.20000011E-02  -1.89092755E-02
  -4.10000011E-02  -2.32649632E-02
  -2.99999993E-02  -2.82734018E-02
  -1.89999994E-02  -3.40648480E-02
  -8.00000038E-03  -4.08859178E-02
   3.00000003E-03  -4.87355962E-02
   1.40000004E-02  -5.75577021E-02
   2.50000004E-02  -6.74399808E-02
   3.59999985E-02  -7.83795118E-02
   4.69999984E-02  -9.03266594E-02
   5.79999983E-02 -0.103364378
   6.89999983E-02 -0.117382631
   7.99999982E-02 -0.131964907
   9.09999982E-02 -0.146858677
  0.101999998     -0.161984921
  0.112999998     -0.176988944
  0.123999998     -0.191320658
  0.135000005     -0.204485312
  0.145999998     -0.215887845
  0.157000005     -0.224857673
  0.167999998     -0.230861291
  0.179000005     -0.233302623
  0.189999998     -0.231387004
  0.201000005     -0.224440157
  0.211999997     -0.211980253
  0.223000005     -0.193493232
  0.233999997     -0.168550894
  0.245000005     -0.136979505
  0.256000012      -9.86926928E-02
  0.266999990      -5.36872186E-02
  0.277999997      -2.28385557E-03
  0.289000005       5.49179204E-02
  0.300000012      0.117232062
  0.310999990      0.183810741
  0.321999997      0.253556639
  0.333000004      0.325255126
  0.344000012      0.397619992
  0.354999989      0.469194144
  0.365999997      0.538445830
  0.377000004      0.603976786
  0.388000011      0.664481997
  0.398999989      0.718656838
  0.409999996      0.765356064
  0.421000004      0.803672850
  0.432000011      0.832784295
  0.442999989      0.852005899
  0.453999996      0.860985637
  0.465000004      0.859579504
  0.476000011      0.847689748
  0.486999989      0.825368226
  0.497999996      0.792786717
  0.509000003      0.750090182
  0.519999981      0.697506368
  0.531000018      0.635381103
  0.541999996      0.563941061
  0.552999973      0.483297557
  0.564000010      0.393664420
  0.574999988      0.295316964
  0.586000025      0.188501880
  0.597000003       7.35752359E-02
  0.607999980      -4.89229485E-02
  0.619000018     -0.178288355
  0.629999995     -0.313540012
  0.640999973     -0.453321874
  0.652000010     -0.595920205
  0.662999988     -0.739265859
  0.674000025     -0.880940855
  0.685000002      -1.01819789
  0.695999980      -1.14795685
  0.707000017      -1.26688266
  0.717999995      -1.37155235
  0.728999972      -1.45859039
  0.740000010      -1.52480125
  0.750999987      -1.56732619
  0.762000024      -1.58375299
  0.773000002      -1.57223308
  0.783999979      -1.53164792
  0.795000017      -1.46172190
  0.805999994      -1.36308479
  0.816999972      -1.23730803
  0.828000009      -1.08684134
  0.838999987     -0.914929628
  0.850000024     -0.725574076
  0.861000001     -0.523409486
  0.871999979     -0.313503176
  0.883000016     -0.101186141
  0.893999994      0.108147688
  0.904999971      0.309281200
  0.916000009      0.497346520
  0.926999986      0.667954087
  0.938000023      0.817328453
  0.949000001      0.942468286
  0.959999979       1.04132259
  0.971000016       1.11280656
  0.981999993       1.15665042
  0.992999971       1.17338336
   1.00399995       1.16439080
   1.01499999       1.13176250
   1.02600002       1.07813799
   1.03699994       1.00667787
   1.04799998      0.920839548
   1.05900002      0.824104965
   1.07000005      0.719981134
   1.08099997      0.611941159
   1.09200001      0.503180027
   1.10300004      0.396554232
   1.11399996      0.294581443
   1.12500000      0.199282929
   1.13600004      0.112205356
   1.14699996       3.45705003E-02
   1.15799999      -3.28480937E-02
   1.16900003      -8.98174122E-02
   1.17999995     -0.136431322
   1.19099998     -0.173026621
   1.20200002     -0.200254783
   1.21300006     -0.218921378
   1.22399998     -0.229853019
   1.23500001     -0.234034702
   1.24600005     -0.232597202
   1.25699997     -0.226595610
   1.26800001     -0.216978565
   1.27900004     -0.204653531
   1.28999996     -0.190420493
   1.30100000     -0.174965903
   1.31200004     -0.158927590
   1.32299995     -0.142826349
   1.33399999     -0.127024710
   1.34500003     -0.111839905
   1.35599995      -9.75513458E-02
   1.36699998      -8.43017772E-02
   1.37800002      -7.21573085E-02
   1.38900006      -6.11904636E-02
