 -0.959999979       0.00000000
 -0.925000012       1.18841319E-06
 -0.889999986       1.24818707E-05
 -0.855000019      -4.90180400E-06
 -0.819999993       1.44862206E-05
 -0.785000026       5.94249432E-05
 -0.750000000       6.74797993E-05
 -0.714999974       2.02411567E-04
 -0.680000007       3.02689208E-04
 -0.644999981       2.14540953E-04
 -0.610000014       7.01401732E-04
 -0.574999988       1.64845213E-03
 -0.540000021       1.64266676E-03
 -0.504999995       1.36563531E-03
 -0.469999999       2.23540911E-03
 -0.435000002       2.40101316E-03
 -0.400000006       8.98534548E-04
 -0.365000010       9.08800750E-04
 -0.330000013       4.20306623E-03
 -0.294999987       1.24332346E-02
 -0.259999990       3.51010375E-02
 -0.224999994       8.55003446E-02
 -0.189999998      0.173963159
 -0.155000001      0.311879516
 -0.119999997      0.506940961
  -8.50000009E-02  0.744897366
  -5.00000007E-02  0.982806504
  -1.49999997E-02   1.15224421
   1.99999996E-02   1.15844715
   5.49999997E-02  0.894912362
   9.00000036E-02  0.283509523
  0.125000000     -0.687963307
  0.159999996      -1.94382727
  0.194999993      -3.30801797
  0.230000004      -4.52055216
  0.264999986      -5.29593754
  0.300000012      -5.39330912
  0.335000008      -4.67234373
  0.370000005      -3.13339067
  0.405000001     -0.928076029
  0.439999998       1.67330813
  0.474999994       4.33442020
  0.509999990       6.70154381
  0.545000017       8.45218468
  0.579999983       9.33930016
  0.615000010       9.21675873
  0.649999976       8.05050278
  0.685000002       5.92396832
  0.720000029       3.03413892
  0.754999995     -0.323047370
  0.790000021      -3.77072906
  0.824999988      -6.87747574
  0.860000014      -9.19980526
  0.894999981      -10.3497963
  0.930000007      -10.0856028
  0.964999974      -8.40065670
   1.00000000      -5.57128048
   1.03499997      -2.13324594
   1.07000005       1.22942424
   1.10500002       3.86746573
   1.13999999       5.35367203
   1.17499995       5.59463263
   1.21000004       4.82622623
   1.24500000       3.49601078
   1.27999997       2.07968092
   1.31500006      0.917390704
   1.35000002      0.141557485
   1.38499999     -0.289459467
   1.41999996     -0.492746145
   1.45500004     -0.562255800
   1.49000001     -0.525553048
   1.52499998     -0.369971126
   1.55999994     -0.108137287
   1.59500003      0.173755825
   1.63000000      0.329278469
