 -0.800000012       0.00000000
 -0.788999975       0.00000000
 -0.777999997       0.00000000
 -0.767000020       3.74872761E-23
 -0.755999982       2.37337927E-09
 -0.745000005      -1.61121889E-08
 -0.734000027       7.37000576E-08
 -0.722999990      -2.05184065E-07
 -0.712000012       1.98596240E-07
 -0.700999975       5.40969438E-07
 -0.689999998      -1.90790752E-06
 -0.679000020       1.31481215E-06
 -0.667999983       4.23616348E-06
 -0.657000005      -9.61329988E-06
 -0.646000028      -4.30893294E-07
 -0.634999990       2.46372001E-05
 -0.624000013      -1.98063717E-05
 -0.612999976      -3.44677464E-05
 -0.601999998       5.22407463E-05
 -0.591000021       1.70610892E-05
 -0.579999983      -4.59850198E-05
 -0.569000006       3.78550249E-05
 -0.558000028      -1.19770688E-04
 -0.546999991      -1.01745449E-04
 -0.536000013       6.07279711E-04
 -0.524999976       1.15949137E-04
 -0.513999999      -1.49546168E-03
 -0.503000021      -5.52586243E-05
 -0.492000014       2.56109238E-03
 -0.481000006      -2.95889786E-05
 -0.469999999      -3.10024177E-03
 -0.458999991       1.42326186E-04
 -0.448000014       2.10990896E-03
 -0.437000006      -6.25518733E-04
 -0.425999999       8.72452743E-04
 -0.414999992       2.08544591E-03
 -0.404000014      -4.70291637E-03
 -0.393000007      -4.36611986E-03
 -0.381999999       7.01074302E-03
 -0.370999992       5.74715575E-03
 -0.360000014      -6.65856851E-03
 -0.349000007      -5.13271242E-03
 -0.338000000       3.93128954E-03
 -0.326999992       3.87950987E-03
 -0.316000015       2.75921612E-03
 -0.305000007       8.90872558E-04
 -0.294000000      -5.72649855E-03
 -0.282999992       9.17519501E-04
 -0.272000015       1.41894678E-02
 -0.261000007       2.67035654E-03
 -0.250000000      -1.17143057E-02
 -0.238999993       7.33599393E-03
 -0.228000000       2.53061559E-02
 -0.216999993       1.17427288E-02
 -0.206000000       3.81632405E-03
 -0.194999993       1.62596833E-02
 -0.184000000       2.31144391E-02
 -0.172999993       3.39166671E-02
 -0.162000000       5.68433888E-02
 -0.150999993       5.95484897E-02
 -0.140000001       5.10277152E-02
 -0.128999993       7.64465034E-02
 -0.118000001      0.119335108
 -0.107000001      0.142640755
  -9.60000008E-02  0.165331110
  -8.50000009E-02  0.203127444
  -7.40000010E-02  0.241549611
  -6.30000010E-02  0.292644799
  -5.20000011E-02  0.364692599
  -4.10000011E-02  0.427232265
  -2.99999993E-02  0.483410418
  -1.89999994E-02  0.569615602
  -8.00000038E-03  0.670571268
   3.00000003E-03  0.756613076
   1.40000004E-02  0.847404778
   2.50000004E-02  0.949381351
   3.59999985E-02   1.03962982
   4.69999984E-02   1.13258624
   5.79999983E-02   1.23789227
   6.89999983E-02   1.31085074
   7.99999982E-02   1.34049368
   9.09999982E-02   1.36751962
  0.101999998       1.38267827
  0.112999998       1.34524536
  0.123999998       1.26053548
  0.135000005       1.13312292
  0.145999998      0.940078020
  0.157000005      0.690770447
  0.167999998      0.400817513
  0.179000005       4.30394933E-02
  0.189999998     -0.391460210
  0.201000005     -0.871677995
  0.211999997      -1.39364612
  0.223000005      -1.96742558
  0.233999997      -2.56746387
  0.245000005      -3.17287207
  0.256000012      -3.78847432
  0.266999990      -4.39444399
  0.277999997      -4.95171452
  0.289000005      -5.44856071
  0.300000012      -5.88109779
  0.310999990      -6.22397041
  0.321999997      -6.45721054
  0.333000004      -6.57919788
  0.344000012      -6.57821417
  0.354999989      -6.43500900
  0.365999997      -6.15573740
  0.377000004      -5.75891399
  0.388000011      -5.24247217
  0.398999989      -4.60781670
  0.409999996      -3.88275266
  0.421000004      -3.08363748
  0.432000011      -2.20946097
  0.442999989      -1.28559339
  0.453999996     -0.346955836
  0.465000004      0.602784395
  0.476000011       1.55883873
  0.486999989       2.49965262
  0.497999996       3.42455888
  0.509000003       4.33843184
  0.519999981       5.22188568
  0.531000018       6.07331085
  0.541999996       6.91578770
  0.552999973       7.74688005
  0.564000010       8.55033207
  0.574999988       9.33124447
  0.586000025       10.0892763
  0.597000003       10.8057508
  0.607999980       11.4670076
  0.619000018       12.0550508
  0.629999995       12.5361671
  0.640999973       12.8780384
  0.652000010       13.0488930
  0.662999988       13.0139351
  0.674000025       12.7445316
  0.685000002       12.2116356
  0.695999980       11.3824797
  0.707000017       10.2407436
  0.717999995       8.78861523
  0.728999972       7.03509760
  0.740000010       5.00311804
  0.750999987       2.72951388
  0.762000024      0.258043826
  0.773000002      -2.35209036
  0.783999979      -5.02708006
  0.795000017      -7.68717051
  0.805999994      -10.2469091
  0.816999972      -12.6214619
  0.828000009      -14.7364531
  0.838999987      -16.5206432
  0.850000024      -17.9073353
  0.861000001      -18.8493996
  0.871999979      -19.3154297
  0.883000016      -19.2877331
  0.893999994      -18.7728367
  0.904999971      -17.7973442
  0.916000009      -16.3973846
  0.926999986      -14.6224222
  0.938000023      -12.5354786
  0.949000001      -10.2160997
  0.959999979      -7.75726080
  0.971000016      -5.24011755
  0.981999993      -2.73179293
  0.992999971     -0.311133504
   1.00399995       1.94562960
   1.01499999       3.98707175
   1.02600002       5.76334572
   1.03699994       7.22940159
   1.04799998       8.37728024
   1.05900002       9.21100903
   1.07000005       9.72122288
   1.08099997       9.92204571
   1.09200001       9.85140514
   1.10300004       9.53505325
   1.11399996       9.00707340
   1.12500000       8.32094765
   1.13600004       7.51069927
   1.14699996       6.60368633
   1.15799999       5.65372133
   1.16900003       4.70437002
   1.17999995       3.77144837
   1.19099998       2.88274646
   1.20200002       2.06752872
   1.21300006       1.32592511
   1.22399998      0.661929131
   1.23500001       9.89056006E-02
   1.24600005     -0.360231280
   1.25699997     -0.731122553
   1.26800001      -1.01769376
   1.27900004      -1.22403598
   1.28999996      -1.36422431
   1.30100000      -1.44438577
   1.31200004      -1.47004664
   1.32299995      -1.45825565
   1.33399999      -1.41700089
   1.34500003      -1.34410393
   1.35599995      -1.25211024
   1.36699998      -1.15617907
   1.37800002      -1.05268633
   1.38900006     -0.941916943
