 -0.800000012       0.00000000
 -0.788999975       0.00000000
 -0.777999997       0.00000000
 -0.767000020       0.00000000
 -0.755999982      -1.88665819E-10
 -0.745000005       3.44107964E-10
 -0.734000027       5.41373568E-09
 -0.722999990      -8.34840819E-09
 -0.712000012      -2.29987513E-08
 -0.700999975       4.07857783E-08
 -0.689999998       4.83128844E-08
 -0.679000020      -1.11088653E-07
 -0.667999983      -5.15450438E-08
 -0.657000005       2.08334384E-07
 -0.646000028      -4.75701645E-10
 -0.634999990      -2.79692813E-07
 -0.624000013       6.93886406E-08
 -0.612999976       1.85901030E-07
 -0.601999998      -3.84996710E-08
 -0.591000021       3.07817771E-07
 -0.579999983      -8.72894361E-08
 -0.569000006      -1.26051259E-06
 -0.558000028       6.22690663E-08
 -0.546999991       2.09787345E-06
 -0.536000013       7.94708441E-08
 -0.524999976      -2.07900780E-06
 -0.513999999       1.20525030E-07
 -0.503000021       1.32923105E-06
 -0.492000014      -4.40427073E-07
 -0.481000006      -2.49900381E-07
 -0.469999999      -1.08921036E-07
 -0.458999991      -2.07270659E-06
 -0.448000014      -2.47772363E-08
 -0.437000006       4.21553659E-06
 -0.425999999       2.96817029E-06
 -0.414999992       1.09221401E-06
 -0.404000014       3.78646041E-06
 -0.393000007       5.94416815E-06
 -0.381999999       9.29342605E-06
 -0.370999992       1.78735099E-05
 -0.360000014       2.39868568E-05
 -0.349000007       2.76082683E-05
 -0.338000000       4.01512334E-05
 -0.326999992       5.91152384E-05
 -0.316000015       7.81111376E-05
 -0.305000007       1.06047635E-04
 -0.294000000       1.46182676E-04
 -0.282999992       1.92422478E-04
 -0.272000015       2.54075770E-04
 -0.261000007       3.43501510E-04
 -0.250000000       4.56659094E-04
 -0.238999993       5.95087535E-04
 -0.228000000       7.74811080E-04
 -0.216999993       1.00534572E-03
 -0.206000000       1.29274477E-03
 -0.194999993       1.65363343E-03
 -0.184000000       2.10539624E-03
 -0.172999993       2.66105076E-03
 -0.162000000       3.34043754E-03
 -0.150999993       4.16972162E-03
 -0.140000001       5.17311366E-03
 -0.128999993       6.37640757E-03
 -0.118000001       7.81221595E-03
 -0.107000001       9.51369759E-03
  -9.60000008E-02   1.15096020E-02
  -8.50000009E-02   1.38320103E-02
  -7.40000010E-02   1.65178012E-02
  -6.30000010E-02   1.95961744E-02
  -5.20000011E-02   2.30906568E-02
  -4.10000011E-02   2.70290729E-02
  -2.99999993E-02   3.14284563E-02
  -1.89999994E-02   3.62854861E-02
  -8.00000038E-03   4.15955782E-02
   3.00000003E-03   4.73483242E-02
   1.40000004E-02   5.35037145E-02
   2.50000004E-02   6.00038916E-02
   3.59999985E-02   6.67819455E-02
   4.69999984E-02   7.37394392E-02
   5.79999983E-02   8.07517841E-02
   6.89999983E-02   8.76846537E-02
   7.99999982E-02   9.43736210E-02
   9.09999982E-02  0.100622945
  0.101999998      0.106230453
  0.112999998      0.110974640
  0.123999998      0.114608601
  0.135000005      0.116891608
  0.145999998      0.117583416
  0.157000005      0.116428800
  0.167999998      0.113195829
  0.179000005      0.107688583
  0.189999998       9.97203067E-02
  0.201000005       8.91386122E-02
  0.211999997       7.58555159E-02
  0.223000005       5.98249771E-02
  0.233999997       4.10518907E-02
  0.245000005       1.96254775E-02
  0.256000012      -4.29871958E-03
  0.266999990      -3.05061266E-02
  0.277999997      -5.86951897E-02
  0.289000005      -8.84926766E-02
  0.300000012     -0.119472727
  0.310999990     -0.151131570
  0.321999997     -0.182899669
  0.333000004     -0.214182422
  0.344000012     -0.244348660
  0.354999989     -0.272729129
  0.365999997     -0.298664540
  0.377000004     -0.321516722
  0.388000011     -0.340654582
  0.398999989     -0.355491430
  0.409999996     -0.365522444
  0.421000004     -0.370316029
  0.432000011     -0.369524091
  0.442999989     -0.362919837
  0.453999996     -0.350404680
  0.465000004     -0.331998348
  0.476000011     -0.307854801
  0.486999989     -0.278277874
  0.497999996     -0.243703738
  0.509000003     -0.204688862
  0.519999981     -0.161919564
  0.531000018     -0.116193645
  0.541999996      -6.83802143E-02
  0.552999973      -1.94151215E-02
  0.564000010       2.97095906E-02
  0.574999988       7.80036673E-02
  0.586000025      0.124502614
  0.597000003      0.168259636
  0.607999980      0.208399326
  0.619000018      0.244168133
  0.629999995      0.274911702
  0.640999973      0.300092667
  0.652000010      0.319352865
  0.662999988      0.332492441
  0.674000025      0.339440316
  0.685000002      0.340301722
  0.695999980      0.335352451
  0.707000017      0.324975371
  0.717999995      0.309672147
  0.728999972      0.290073156
  0.740000010      0.266867429
  0.750999987      0.240779862
  0.762000024      0.212588966
  0.773000002      0.183072120
  0.783999979      0.152958587
  0.795000017      0.122951113
  0.805999994       9.37053561E-02
  0.816999972       6.57776520E-02
  0.828000009       3.96377780E-02
  0.838999987       1.56826675E-02
  0.850000024      -5.79810748E-03
  0.861000001      -2.46226490E-02
  0.871999979      -4.06844318E-02
  0.883000016      -5.39579913E-02
  0.893999994      -6.45084903E-02
  0.904999971      -7.24628270E-02
  0.916000009      -7.79893249E-02
  0.926999986      -8.13031271E-02
  0.938000023      -8.26548636E-02
  0.949000001      -8.23034123E-02
  0.959999979      -8.05111974E-02
  0.971000016      -7.75486678E-02
  0.981999993      -7.36748502E-02
  0.992999971      -6.91209733E-02
   1.00399995      -6.41028509E-02
   1.01499999      -5.88202737E-02
   1.02600002      -5.34358174E-02
   1.03699994      -4.80823889E-02
   1.04799998      -4.28794995E-02
   1.05900002      -3.79166603E-02
   1.07000005      -3.32496762E-02
   1.08099997      -2.89252046E-02
   1.09200001      -2.49756481E-02
   1.10300004      -2.14043818E-02
   1.11399996      -1.82076786E-02
   1.12500000      -1.53828543E-02
   1.13600004      -1.29076019E-02
   1.14699996      -1.07514439E-02
   1.15799999      -8.89547076E-03
   1.16900003      -7.31329294E-03
   1.17999995      -5.96640958E-03
   1.19099998      -4.82955528E-03
   1.20200002      -3.88398743E-03
   1.21300006      -3.09834769E-03
   1.22399998      -2.44621071E-03
   1.23500001      -1.91521365E-03
   1.24600005      -1.48601132E-03
   1.25699997      -1.13525393E-03
   1.26800001      -8.53810983E-04
   1.27900004      -6.34144875E-04
   1.28999996      -4.59763251E-04
   1.30100000      -3.22176726E-04
   1.31200004      -2.20359943E-04
   1.32299995      -1.44081161E-04
   1.33399999      -8.42072332E-05
   1.34500003      -4.30871260E-05
   1.35599995      -1.74110464E-05
   1.36699998       2.36847586E-06
   1.37800002       1.40806096E-05
   1.38900006       1.44767018E-05
