 -0.800000012       0.00000000
 -0.788999975       0.00000000
 -0.777999997       0.00000000
 -0.767000020      -2.26353668E-26
 -0.755999982      -9.70930541E-19
 -0.745000005       2.56186389E-17
 -0.734000027       1.12898917E-16
 -0.722999990       1.29917940E-16
 -0.712000012       1.29892701E-16
 -0.700999975      -3.48700722E-15
 -0.689999998       4.05784982E-15
 -0.679000020       2.24603576E-14
 -0.667999983      -6.35173134E-14
 -0.657000005      -5.52351921E-15
 -0.646000028       2.83306256E-13
 -0.634999990      -3.42675243E-13
 -0.624000013      -5.93820132E-13
 -0.612999976       1.56627033E-12
 -0.601999998       1.88446779E-13
 -0.591000021      -3.58945187E-12
 -0.579999983       2.44792272E-12
 -0.569000006       4.78416005E-12
 -0.558000028      -8.83489636E-12
 -0.546999991      -1.94969475E-12
 -0.536000013       2.00742790E-11
 -0.524999976      -8.97336459E-12
 -0.513999999      -3.64734562E-11
 -0.503000021       2.56890360E-11
 -0.492000014       6.06440384E-11
 -0.481000006      -3.55154968E-11
 -0.469999999      -1.12926925E-10
 -0.458999991       2.53393504E-11
 -0.448000014       2.37624032E-10
 -0.437000006      -7.85096033E-12
 -0.425999999      -4.73413864E-10
 -0.414999992       5.08171769E-11
 -0.404000014       8.06219258E-10
 -0.393000007      -2.23795066E-10
 -0.381999999      -1.15826282E-09
 -0.370999992       4.57116456E-10
 -0.360000014       1.41183021E-09
 -0.349000007      -3.99315192E-10
 -0.338000000      -1.56183311E-09
 -0.326999992      -3.88070603E-10
 -0.316000015       2.15202856E-09
 -0.305000007       1.91407556E-09
 -0.294000000      -4.51300330E-09
 -0.282999992      -3.55452978E-09
 -0.272000015       9.67581570E-09
 -0.261000007       4.63728744E-09
 -0.250000000      -1.61959512E-08
 -0.238999993      -5.66232927E-09
 -0.228000000       1.86746867E-08
 -0.216999993       7.92602428E-09
 -0.206000000      -1.19292007E-08
 -0.194999993      -1.34304674E-08
 -0.184000000      -8.01671396E-10
 -0.172999993       3.07639887E-08
 -0.162000000       1.61514428E-08
 -0.150999993      -6.52951968E-08
 -0.140000001      -4.00116882E-08
 -0.128999993       9.73535705E-08
 -0.118000001       7.27509075E-08
 -0.107000001      -9.60412549E-08
  -9.60000008E-02  -9.69801874E-08
  -8.50000009E-02   6.69290401E-08
  -7.40000010E-02   1.18615660E-07
  -6.30000010E-02  -3.38606760E-08
  -5.20000011E-02  -1.59908467E-07
  -4.10000011E-02   7.26371852E-09
  -2.99999993E-02   2.19316107E-07
  -1.89999994E-02   4.14647516E-08
  -8.00000038E-03  -2.02311540E-07
   3.00000003E-03  -9.04137565E-08
   1.40000004E-02  -2.79670029E-08
   2.50000004E-02  -8.10533791E-08
   3.59999985E-02   2.35487292E-07
   4.69999984E-02   4.25277051E-07
   5.79999983E-02  -1.99600663E-07
   6.89999983E-02  -6.45860609E-07
   7.99999982E-02   3.54661500E-09
   9.09999982E-02   6.97366886E-07
  0.101999998       2.35843075E-07
  0.112999998      -7.09600670E-07
  0.123999998      -4.57683939E-07
  0.135000005       7.22348545E-07
  0.145999998       7.31260229E-07
  0.157000005      -3.53708515E-07
  0.167999998      -5.14666510E-07
  0.179000005      -1.23434930E-07
  0.189999998      -2.08658207E-07
  0.201000005      -1.79679258E-08
  0.211999997       3.80593804E-07
  0.223000005      -8.59836291E-08
  0.233999997      -3.58389769E-07
  0.245000005       2.82525292E-07
  0.256000012       2.66181814E-07
  0.266999990      -7.45286499E-08
  0.277999997       2.00366692E-08
  0.289000005      -3.90304706E-07
  0.300000012      -1.64958308E-07
  0.310999990       1.13144915E-06
  0.321999997       4.36248314E-07
  0.333000004      -8.91778996E-07
  0.344000012       7.41263619E-08
  0.354999989      -2.78153692E-07
  0.365999997      -1.59983199E-06
  0.377000004       7.36599702E-07
  0.388000011       2.33065634E-06
  0.398999989      -2.49914535E-07
  0.409999996      -1.27922510E-06
  0.421000004       2.37088386E-07
  0.432000011      -4.70333617E-07
  0.442999989      -1.78306675E-06
  0.453999996       4.56804429E-07
  0.465000004       3.47468813E-06
  0.476000011       1.52668349E-06
  0.486999989      -2.69455859E-06
  0.497999996      -3.49122479E-06
  0.509000003       1.39570474E-07
  0.519999981       4.19675507E-06
  0.531000018       2.15475279E-06
  0.541999996      -2.34140543E-06
  0.552999973      -3.46587740E-06
  0.564000010      -1.40670443E-06
  0.574999988       2.38048710E-06
  0.586000025       3.35317031E-06
  0.597000003       1.69036434E-06
  0.607999980       1.53426572E-06
  0.619000018      -2.90667640E-06
  0.629999995      -7.43212240E-06
  0.640999973      -5.17218211E-07
  0.652000010       5.70776911E-06
  0.662999988       4.71821295E-07
  0.674000025      -1.89938964E-06
  0.685000002       3.23486415E-06
  0.695999980      -1.44672157E-07
  0.707000017      -7.45604893E-06
  0.717999995      -2.70070700E-06
  0.728999972       7.21100514E-06
  0.740000010       7.87637327E-06
  0.750999987      -3.32175091E-06
  0.762000024      -7.71354644E-06
  0.773000002       3.66920858E-06
  0.783999979       3.83134056E-06
  0.795000017      -6.41739416E-06
  0.805999994       7.91730940E-07
  0.816999972       9.77557193E-06
  0.828000009      -4.15407840E-06
  0.838999987      -1.08407976E-05
  0.850000024       7.42964085E-06
  0.861000001       8.83130633E-06
  0.871999979      -7.55800420E-06
  0.883000016      -3.99256032E-06
  0.893999994       2.29819739E-06
  0.904999971      -5.08109224E-06
  0.916000009       1.36555639E-06
  0.926999986       1.26805317E-05
  0.938000023       2.88293313E-06
  0.949000001      -8.54637074E-06
  0.959999979      -6.39854670E-06
  0.971000016      -3.16154501E-06
  0.981999993      -2.00039008E-08
  0.992999971       2.11908491E-06
   1.00399995      -2.33402648E-06
   1.01499999       2.18712515E-07
   1.02600002       8.69951873E-06
   1.03699994       6.43283443E-07
   1.04799998      -7.64555443E-06
   1.05900002       5.50917139E-06
   1.07000005       7.52253800E-06
   1.08099997      -1.13784172E-05
   1.09200001      -5.61341449E-06
   1.10300004       1.71799893E-05
   1.11399996       3.49261904E-06
   1.12500000      -1.85997160E-05
   1.13600004       3.18203632E-07
   1.14699996       1.43228299E-05
   1.15799999      -7.89024944E-06
   1.16900003      -9.12834912E-06
   1.17999995       1.64186949E-05
   1.19099998       7.46449950E-06
   1.20200002      -1.71787706E-05
   1.21300006      -3.91139793E-06
   1.22399998       1.15724242E-05
   1.23500001      -3.91515141E-06
   1.24600005      -8.29299643E-06
   1.25699997       8.46260264E-06
   1.26800001       8.12057988E-06
   1.27900004      -7.28867099E-06
   1.28999996      -9.37146069E-06
   1.30100000       1.06855396E-06
   1.31200004       6.21062918E-06
   1.32299995       1.79364349E-06
   1.33399999      -1.81433211E-06
   1.34500003       1.37637062E-06
   1.35599995       1.53279484E-06
   1.36699998      -3.30859029E-06
   1.37800002       2.60315915E-07
   1.38900006       5.32346030E-06
