 -0.959999979       0.00000000
 -0.925000012      -2.99325751E-33
 -0.889999986       0.00000000
 -0.855000019      -1.26984132E-10
 -0.819999993       0.00000000
 -0.785000026       7.61904762E-10
 -0.750000000       1.01587305E-09
 -0.714999974      -3.04761905E-09
 -0.680000007      -4.06349221E-09
 -0.644999981       8.12698442E-09
 -0.610000014       1.62539688E-08
 -0.574999988      -4.87619047E-08
 -0.540000021      -8.12698460E-08
 -0.504999995       2.60063501E-07
 -0.469999999      -1.30031751E-07
 -0.435000002       1.95047619E-07
 -0.400000006      -2.60063501E-07
 -0.365000010       3.90095238E-07
 -0.330000013      -6.50158768E-07
 -0.294999987      -1.30031754E-06
 -0.259999990       3.90095238E-07
 -0.224999994       2.21053983E-06
 -0.189999998       5.91644448E-06
 -0.155000001      -6.95669860E-06
 -0.119999997      -1.61239368E-05
  -8.50000009E-02   1.82044460E-05
  -5.00000007E-02   1.04025403E-05
  -1.49999997E-02  -2.23654606E-05
   1.99999996E-02   1.97648260E-05
   5.49999997E-02   8.06196840E-06
   9.00000036E-02  -3.58887628E-05
  0.125000000       9.88241300E-06
  0.159999996       3.20203180E-05
  0.194999993      -4.60312403E-05
  0.230000004      -1.35233022E-05
  0.264999986       8.68612115E-05
  0.300000012      -7.80190476E-06
  0.335000008      -9.15423516E-05
  0.370000005       3.14026693E-05
  0.405000001       3.89445086E-05
  0.439999998      -6.03347326E-05
  0.474999994       2.80868589E-05
  0.509999990       6.83967010E-05
  0.545000017      -8.47807023E-05
  0.579999983      -1.46285720E-05
  0.615000010       1.06634165E-04
  0.649999976      -5.86443202E-05
  0.685000002      -6.50158745E-06
  0.720000029       1.50836831E-05
  0.754999995      -5.51334633E-05
  0.790000021      -2.44459698E-05
  0.824999988       1.08966604E-04
  0.860000014       1.70991752E-05
  0.894999981      -1.49276457E-04
  0.930000007       3.64088919E-05
  0.964999974       1.40174234E-04
   1.00000000      -5.77340979E-05
   1.03499997      -8.86816561E-05
   1.07000005       9.74913055E-05
   1.10500002      -7.15174610E-06
   1.13999999      -1.12347436E-04
   1.17499995       6.43982276E-05
   1.21000004       3.34831748E-05
   1.24500000      -5.76040657E-05
   1.27999997       9.08271759E-05
   1.31500006       7.06722567E-05
   1.35000002      -1.56168127E-04
   1.38499999      -4.99321904E-05
   1.41999996       1.04545528E-04
   1.45500004      -4.19352400E-05
   1.49000001      -4.66163838E-05
   1.52499998       1.18328891E-04
   1.55999994       7.54184157E-06
   1.59500003      -1.11567242E-04
   1.63000000       5.50318764E-05
