 -0.800000012       0.00000000
 -0.788999975       0.00000000
 -0.777999997       0.00000000
 -0.767000020       4.68866634E-28
 -0.755999982       9.88790368E-26
 -0.745000005       2.92805923E-17
 -0.734000027      -2.43222285E-17
 -0.722999990      -2.50550281E-16
 -0.712000012       8.28372811E-16
 -0.700999975      -5.90207475E-15
 -0.689999998       4.17837499E-15
 -0.679000020       3.90761574E-14
 -0.667999983      -6.23253212E-14
 -0.657000005      -1.07472977E-13
 -0.646000028       2.54053560E-13
 -0.634999990       9.52034811E-14
 -0.624000013      -4.27053006E-13
 -0.612999976       2.95760107E-13
 -0.601999998       2.01127797E-13
 -0.591000021      -1.02530777E-12
 -0.579999983       1.30300978E-12
 -0.569000006       1.27708423E-12
 -0.558000028      -5.11984639E-12
 -0.546999991       9.87830911E-13
 -0.536000013       1.17339558E-11
 -0.524999976      -8.13831814E-12
 -0.513999999      -2.01158552E-11
 -0.503000021       1.79439224E-11
 -0.492000014       2.76610141E-11
 -0.481000006      -2.05166769E-11
 -0.469999999      -4.24096105E-11
 -0.458999991      -6.42233987E-13
 -0.448000014       8.65397753E-11
 -0.437000006       6.12000034E-11
 -0.425999999      -1.86267654E-10
 -0.414999992      -1.38247094E-10
 -0.404000014       3.73329700E-10
 -0.393000007       1.87053276E-10
 -0.381999999      -6.41468545E-10
 -0.370999992      -1.93295505E-10
 -0.360000014       9.13465692E-10
 -0.349000007       2.55019617E-10
 -0.338000000      -1.12825260E-09
 -0.326999992      -7.04959757E-10
 -0.316000015       1.34230949E-09
 -0.305000007       2.00281036E-09
 -0.294000000      -1.56474234E-09
 -0.282999992      -3.98066158E-09
 -0.272000015       1.98038408E-09
 -0.261000007       5.52845236E-09
 -0.250000000      -3.57235064E-09
 -0.238999993      -6.00047478E-09
 -0.228000000       6.83934376E-09
 -0.216999993       5.57025626E-09
 -0.206000000      -1.01741851E-08
 -0.194999993      -2.50055665E-09
 -0.184000000       1.29681696E-08
 -0.172999993      -6.11996143E-09
 -0.162000000      -1.94960972E-08
 -0.150999993       1.67209180E-08
 -0.140000001       3.11872199E-08
 -0.128999993      -2.27226735E-08
 -0.118000001      -4.11119636E-08
 -0.107000001       2.54595314E-08
  -9.60000008E-02   3.94505193E-08
  -8.50000009E-02  -4.10786001E-08
  -7.40000010E-02  -3.22617240E-08
  -6.30000010E-02   7.82075986E-08
  -5.20000011E-02   4.74437591E-08
  -4.10000011E-02  -8.78532447E-08
  -2.99999993E-02  -5.09484614E-08
  -1.89999994E-02   4.08571807E-08
  -8.00000038E-03  -3.55019232E-08
   3.00000003E-03  -5.42377876E-08
   1.40000004E-02   7.86321763E-08
   2.50000004E-02   7.31674206E-08
   3.59999985E-02   1.31179121E-08
   4.69999984E-02   8.44156034E-08
   5.79999983E-02  -7.02091185E-08
   6.89999983E-02  -3.99973715E-07
   7.99999982E-02  -1.54311749E-07
   9.09999982E-02   4.88034061E-07
  0.101999998       4.73261110E-07
  0.112999998      -1.86852901E-07
  0.123999998      -4.63223131E-07
  0.135000005      -1.26792685E-07
  0.145999998       1.66196017E-08
  0.157000005       6.96567213E-08
  0.167999998       6.09291988E-07
  0.179000005       3.47706703E-07
  0.189999998      -1.33879985E-06
  0.201000005      -1.21748906E-06
  0.211999997       1.66710129E-06
  0.223000005       2.04645266E-06
  0.233999997      -1.51709503E-06
  0.245000005      -2.35771563E-06
  0.256000012       1.17566060E-06
  0.266999990       2.07100379E-06
  0.277999997      -7.36548770E-07
  0.289000005      -1.02856950E-06
  0.300000012       9.47929948E-07
  0.310999990       3.03487838E-07
  0.321999997      -1.31499939E-06
  0.333000004      -2.65649362E-07
  0.344000012       7.92584387E-07
  0.354999989      -8.88661702E-07
  0.365999997      -1.48427364E-06
  0.377000004       1.57242187E-06
  0.388000011       2.97012002E-06
  0.398999989      -6.11469375E-07
  0.409999996      -2.77309800E-06
  0.421000004       8.36564368E-07
  0.432000011       2.57665715E-06
  0.442999989      -1.68320150E-06
  0.453999996      -2.43818727E-06
  0.465000004       1.97046643E-06
  0.476000011       1.25731344E-06
  0.486999989      -3.09090842E-06
  0.497999996      -9.40279108E-07
  0.509000003       5.43766373E-06
  0.519999981       5.72303679E-06
  0.531000018      -2.04674325E-06
  0.541999996      -9.88498687E-06
  0.552999973      -7.42894235E-06
  0.564000010       3.78054824E-06
  0.574999988       8.69432188E-06
  0.586000025       2.98155373E-06
  0.597000003      -1.25846873E-06
  0.607999980      -1.23845064E-06
  0.619000018      -3.94166773E-06
  0.629999995      -3.72139334E-06
  0.640999973       4.86060799E-06
  0.652000010       8.37083098E-06
  0.662999988      -2.38152325E-06
  0.674000025      -1.15075927E-05
  0.685000002      -3.64501443E-06
  0.695999980       8.66692790E-06
  0.707000017       6.10500138E-06
  0.717999995      -3.35418258E-06
  0.728999972      -3.29041882E-06
  0.740000010       1.28011357E-06
  0.750999987       5.75364822E-07
  0.762000024      -1.71579188E-06
  0.773000002       1.46467846E-06
  0.783999979       3.26418626E-06
  0.795000017      -1.26088719E-06
  0.805999994      -3.53214068E-06
  0.816999972      -1.43812384E-08
  0.828000009       2.00383442E-06
  0.838999987      -3.22422898E-06
  0.850000024      -4.65052653E-06
  0.861000001       6.30148861E-06
  0.871999979       1.25570859E-05
  0.883000016       1.05469235E-06
  0.893999994      -8.67944436E-06
  0.904999971      -1.27795533E-06
  0.916000009       2.40463646E-06
  0.926999986      -1.00560610E-05
  0.938000023      -1.32715913E-05
  0.949000001       5.87260183E-06
  0.959999979       1.97524932E-05
  0.971000016       6.90917250E-06
  0.981999993      -1.32151890E-05
  0.992999971      -1.16027331E-05
   1.00399995       7.42047223E-06
   1.01499999       1.35218725E-05
   1.02600002      -1.45184822E-06
   1.03699994      -1.16732390E-05
   1.04799998      -4.33150217E-06
   1.05900002       5.20026515E-06
   1.07000005       7.02636726E-06
   1.08099997       3.12095653E-06
   1.09200001      -4.38015195E-06
   1.10300004      -7.09139704E-06
   1.11399996      -1.82646329E-06
   1.12500000       5.19196306E-07
   1.13600004      -1.00338843E-06
   1.14699996       2.81085045E-06
   1.15799999       8.19924935E-06
   1.16900003       6.42253235E-06
   1.17999995       3.00783285E-07
   1.19099998      -6.28147427E-06
   1.20200002      -1.14631512E-05
   1.21300006      -7.26556391E-06
   1.22399998       5.08688845E-06
   1.23500001       8.85615282E-06
   1.24600005       2.02092315E-06
   1.25699997       8.88714624E-07
   1.26800001       3.97772874E-06
   1.27900004      -3.80914639E-06
   1.28999996      -1.32968198E-05
   1.30100000      -4.50598554E-06
   1.31200004       1.15675139E-05
   1.32299995       1.06052867E-05
   1.33399999      -1.44031128E-06
   1.34500003      -3.85768908E-06
   1.35599995       5.79438790E-07
   1.36699998      -2.04426988E-06
   1.37800002      -7.55973133E-06
   1.38900006      -3.18131333E-06
