 -0.800000012       0.00000000
 -0.788999975       0.00000000
 -0.777999997       0.00000000
 -0.767000020       0.00000000
 -0.755999982       4.04508684E-16
 -0.745000005      -4.68942215E-16
 -0.734000027      -3.03865341E-15
 -0.722999990      -3.49252352E-15
 -0.712000012       3.55764002E-16
 -0.700999975      -2.65605748E-14
 -0.689999998       9.15881733E-15
 -0.679000020       3.10395901E-14
 -0.667999983      -2.78627200E-16
 -0.657000005      -4.61565092E-14
 -0.646000028      -2.48466531E-13
 -0.634999990       1.21697858E-13
 -0.624000013       4.38339117E-13
 -0.612999976       2.20762305E-13
 -0.601999998      -1.50909260E-13
 -0.591000021      -9.29998374E-13
 -0.579999983      -4.61025207E-13
 -0.569000006       1.70936626E-12
 -0.558000028      -8.18422803E-13
 -0.546999991      -2.23221658E-12
 -0.536000013       4.04454551E-12
 -0.524999976       3.03414477E-12
 -0.513999999      -7.40672280E-12
 -0.503000021      -3.18894433E-12
 -0.492000014       1.05512951E-11
 -0.481000006      -1.39408060E-12
 -0.469999999      -1.18271391E-11
 -0.458999991      -1.50408574E-11
 -0.448000014       1.38619498E-11
 -0.437000006       7.34875771E-11
 -0.425999999      -1.38717614E-11
 -0.414999992      -1.50412169E-10
 -0.404000014      -1.29215887E-12
 -0.393000007       1.82054247E-10
 -0.381999999       1.61252392E-12
 -0.370999992      -1.73962414E-10
 -0.360000014      -1.30730399E-10
 -0.349000007       1.31625266E-10
 -0.338000000       6.83257784E-10
 -0.326999992       1.71624701E-10
 -0.316000015      -1.54097013E-09
 -0.305000007      -1.01148223E-09
 -0.294000000       2.07001927E-09
 -0.282999992       2.20415242E-09
 -0.272000015      -1.69323644E-09
 -0.261000007      -3.60506069E-09
 -0.250000000       1.21393451E-10
 -0.238999993       4.84902341E-09
 -0.228000000       2.84974222E-09
 -0.216999993      -4.00405131E-09
 -0.206000000      -5.92939831E-09
 -0.194999993      -3.39912098E-10
 -0.184000000       6.42352704E-09
 -0.172999993       4.80733275E-09
 -0.162000000      -6.99069824E-09
 -0.150999993      -9.87658044E-09
 -0.140000001       5.37576961E-09
 -0.128999993       1.08217071E-08
 -0.118000001      -7.68829356E-09
 -0.107000001      -1.39744358E-08
  -9.60000008E-02   6.07828810E-09
  -8.50000009E-02   1.37594611E-08
  -7.40000010E-02  -2.08835527E-09
  -6.30000010E-02  -9.17894560E-09
  -5.20000011E-02  -2.17217733E-09
  -4.10000011E-02  -6.67582448E-11
  -2.99999993E-02   2.16364621E-10
  -1.89999994E-02   5.17659071E-09
  -8.00000038E-03   9.82319448E-10
   3.00000003E-03  -1.06402176E-08
   1.40000004E-02  -4.99140329E-09
   2.50000004E-02   9.36475608E-09
   3.59999985E-02   1.30406819E-09
   4.69999984E-02  -2.31898252E-08
   5.79999983E-02  -1.72592838E-08
   6.89999983E-02   2.37518005E-08
   7.99999982E-02   3.92043020E-08
   9.09999982E-02  -6.89436330E-09
  0.101999998      -5.87349405E-08
  0.112999998      -4.11119139E-08
  0.123999998       2.93687332E-08
  0.135000005       4.72560515E-08
  0.145999998      -2.26441603E-08
  0.157000005      -5.24695309E-08
  0.167999998       7.15937931E-09
  0.179000005       3.89656165E-08
  0.189999998       8.28809854E-10
  0.201000005      -3.68404258E-08
  0.211999997      -2.44501113E-08
  0.223000005       3.17762918E-08
  0.233999997       5.01365776E-08
  0.245000005      -1.35325342E-08
  0.256000012      -8.47472066E-08
  0.266999990      -7.16415229E-08
  0.277999997       1.70691727E-08
  0.289000005       9.88483606E-08
  0.300000012       6.27940508E-08
  0.310999990      -9.44891312E-08
  0.321999997      -1.66954564E-07
  0.333000004      -8.89625706E-09
  0.344000012       1.45498788E-07
  0.354999989       1.03069688E-07
  0.365999997       2.74207377E-08
  0.377000004       1.56910218E-08
  0.388000011      -4.10137062E-08
  0.398999989      -9.19748118E-08
  0.409999996      -7.07483938E-09
  0.421000004       1.26735500E-07
  0.432000011       1.33882807E-07
  0.442999989      -2.03698391E-08
  0.453999996      -1.38555265E-07
  0.465000004      -3.33232713E-08
  0.476000011       1.06439217E-07
  0.486999989       6.05450712E-09
  0.497999996      -1.40261633E-07
  0.509000003      -5.38753078E-08
  0.519999981       9.24981549E-08
  0.531000018       6.71804443E-08
  0.541999996      -7.80333309E-08
  0.552999973      -1.23252619E-07
  0.564000010       1.61025273E-08
  0.574999988       2.21621931E-07
  0.586000025       2.56618563E-07
  0.597000003       5.36065521E-08
  0.607999980      -2.27685206E-07
  0.619000018      -3.61721789E-07
  0.629999995      -1.73357407E-07
  0.640999973       1.86364147E-07
  0.652000010       2.73646037E-07
  0.662999988       2.46808458E-08
  0.674000025      -1.70151750E-07
  0.685000002      -1.75467264E-07
  0.695999980      -8.48040642E-08
  0.707000017       5.52397879E-08
  0.717999995       1.33335391E-07
  0.728999972       1.05476325E-07
  0.740000010       6.77628620E-08
  0.750999987       6.01397332E-08
  0.762000024       9.63546931E-09
  0.773000002      -5.08713605E-08
  0.783999979      -1.23160376E-07
  0.795000017      -1.90944377E-07
  0.805999994      -4.72919908E-08
  0.816999972       2.58984556E-07
  0.828000009       3.53291853E-07
  0.838999987       1.24416985E-07
  0.850000024      -1.87235599E-07
  0.861000001      -3.22264412E-07
  0.871999979      -1.28604938E-07
  0.883000016       1.58918226E-07
  0.893999994       1.39466295E-07
  0.904999971       2.27073471E-09
  0.916000009       5.74996726E-08
  0.926999986       2.65655444E-08
  0.938000023      -1.60744207E-07
  0.949000001      -1.04188089E-07
  0.959999979       1.02145165E-07
  0.971000016       7.65459305E-08
  0.981999993      -6.33466328E-08
  0.992999971      -1.11061695E-07
   1.00399995      -9.61261506E-08
   1.01499999       3.14120214E-08
   1.02600002       1.64489464E-07
   1.03699994       7.00683387E-08
   1.04799998      -7.04201426E-08
   1.05900002      -4.44508519E-09
   1.07000005       7.37207486E-08
   1.08099997      -1.70373529E-08
   1.09200001      -1.45140447E-07
   1.10300004      -1.64120095E-07
   1.11399996      -6.96100466E-09
   1.12500000       1.69011173E-07
   1.13600004       7.94585588E-08
   1.14699996      -9.69473746E-08
   1.15799999      -2.98798426E-08
   1.16900003       3.47136897E-08
   1.17999995      -9.41476230E-08
   1.19099998      -8.03044671E-08
   1.20200002       8.22867321E-08
   1.21300006       6.74558223E-08
   1.22399998       1.52101876E-09
   1.23500001       4.07860519E-08
   1.24600005      -1.84600637E-08
   1.25699997      -1.14218764E-07
   1.26800001      -2.35804070E-08
   1.27900004       8.86972842E-08
   1.28999996       7.27343732E-08
   1.30100000       2.75069887E-08
   1.31200004      -6.21069063E-08
   1.32299995      -1.46346935E-07
   1.33399999      -2.36126780E-08
   1.34500003       1.64147380E-07
   1.35599995       1.31325848E-07
   1.36699998       4.20529389E-09
   1.37800002      -1.94796979E-08
   1.38900006      -2.35190125E-08
