 -0.800000012       0.00000000
 -0.788999975       0.00000000
 -0.777999997       0.00000000
 -0.767000020       2.06180014E-25
 -0.755999982       1.30535860E-11
 -0.745000005      -6.25098653E-11
 -0.734000027       2.54223420E-10
 -0.722999990      -4.68938610E-10
 -0.712000012      -5.05171627E-10
 -0.700999975       3.56243945E-09
 -0.689999998      -3.95572020E-09
 -0.679000020      -7.21774462E-09
 -0.667999983       2.33126212E-08
 -0.657000005      -6.26163033E-09
 -0.646000028      -6.15046929E-08
 -0.634999990       7.16299908E-08
 -0.624000013       9.81995569E-08
 -0.612999976      -2.00308079E-07
 -0.601999998      -1.02556569E-07
 -0.591000021       2.78603522E-07
 -0.579999983       1.19521900E-07
 -0.569000006       7.48069411E-08
 -0.558000028      -3.75729144E-07
 -0.546999991      -1.59406784E-06
 -0.536000013       1.18637070E-06
 -0.524999976       5.16412956E-06
 -0.513999999      -2.42318970E-06
 -0.503000021      -1.09521516E-05
 -0.492000014       2.82993324E-06
 -0.481000006       1.67532016E-05
 -0.469999999      -4.60867540E-07
 -0.458999991      -1.67294038E-05
 -0.448000014      -4.34211051E-06
 -0.437000006       3.82203507E-06
 -0.425999999       5.18017214E-06
 -0.414999992       2.14486136E-05
 -0.404000014       7.05252751E-06
 -0.393000007      -4.28271705E-05
 -0.381999999      -2.82817437E-05
 -0.370999992       4.18866985E-05
 -0.360000014       3.68739311E-05
 -0.349000007      -2.79781143E-05
 -0.338000000      -3.45859407E-05
 -0.326999992       8.37345760E-06
 -0.316000015       4.48864521E-05
 -0.305000007       6.49619396E-05
 -0.294000000       3.83659935E-05
 -0.282999992       1.19166107E-05
 -0.272000015       9.50050380E-05
 -0.261000007       1.87734069E-04
 -0.250000000       1.37992349E-04
 -0.238999993       1.13911636E-04
 -0.228000000       2.93443474E-04
 -0.216999993       4.97212342E-04
 -0.206000000       5.82787150E-04
 -0.194999993       6.93205162E-04
 -0.184000000       9.09762864E-04
 -0.172999993       1.22343388E-03
 -0.162000000       1.72261428E-03
 -0.150999993       2.36276956E-03
 -0.140000001       2.97093857E-03
 -0.128999993       3.67204659E-03
 -0.118000001       4.74884594E-03
 -0.107000001       6.18971325E-03
  -9.60000008E-02   7.88355898E-03
  -8.50000009E-02   9.91008058E-03
  -7.40000010E-02   1.23558044E-02
  -6.30000010E-02   1.52938738E-02
  -5.20000011E-02   1.89092308E-02
  -4.10000011E-02   2.32648179E-02
  -2.99999993E-02   2.82733515E-02
  -1.89999994E-02   3.40649970E-02
  -8.00000038E-03   4.08860259E-02
   3.00000003E-03   4.87355366E-02
   1.40000004E-02   5.75576350E-02
   2.50000004E-02   6.74399585E-02
   3.59999985E-02   7.83795267E-02
   4.69999984E-02   9.03267190E-02
   5.79999983E-02  0.103364341
   6.89999983E-02  0.117382430
   7.99999982E-02  0.131964833
   9.09999982E-02  0.146858901
  0.101999998      0.161984980
  0.112999998      0.176988572
  0.123999998      0.191320360
  0.135000005      0.204485476
  0.145999998      0.215888083
  0.157000005      0.224857748
  0.167999998      0.230861470
  0.179000005      0.233302683
  0.189999998      0.231386378
  0.201000005      0.224439114
  0.211999997      0.211979836
  0.223000005      0.193493947
  0.233999997      0.168552056
  0.245000005      0.136980206
  0.256000012       9.86927971E-02
  0.266999990       5.36867455E-02
  0.277999997       2.28287186E-03
  0.289000005      -5.49186394E-02
  0.300000012     -0.117231764
  0.310999990     -0.183809623
  0.321999997     -0.253556103
  0.333000004     -0.325256348
  0.344000012     -0.397622108
  0.354999989     -0.469194829
  0.365999997     -0.538443923
  0.377000004     -0.603974462
  0.388000011     -0.664482057
  0.398999989     -0.718658686
  0.409999996     -0.765356779
  0.421000004     -0.803671896
  0.432000011     -0.832783937
  0.442999989     -0.852006793
  0.453999996     -0.860985816
  0.465000004     -0.859578788
  0.476000011     -0.847689867
  0.486999989     -0.825368166
  0.497999996     -0.792784989
  0.509000003     -0.750088513
  0.519999981     -0.697506785
  0.531000018     -0.635383189
  0.541999996     -0.563943148
  0.552999973     -0.483298481
  0.564000010     -0.393663794
  0.574999988     -0.295315117
  0.586000025     -0.188502252
  0.597000003      -7.35796019E-02
  0.607999980       4.89205644E-02
  0.619000018      0.178291887
  0.629999995      0.313543588
  0.640999973      0.453321666
  0.652000010      0.595919788
  0.662999988      0.739265323
  0.674000025      0.880936861
  0.685000002       1.01819575
  0.695999980       1.14796340
  0.707000017       1.26689100
  0.717999995       1.37155247
  0.728999972       1.45858300
  0.740000010       1.52479315
  0.750999987       1.56732261
  0.762000024       1.58375418
  0.773000002       1.57223690
  0.783999979       1.53165150
  0.795000017       1.46172321
  0.805999994       1.36308563
  0.816999972       1.23730958
  0.828000009       1.08684099
  0.838999987      0.914927006
  0.850000024      0.725573182
  0.861000001      0.523411155
  0.871999979      0.313504577
  0.883000016      0.101187207
  0.893999994     -0.108145922
  0.904999971     -0.309281915
  0.916000009     -0.497352958
  0.926999986     -0.667961895
  0.938000023     -0.817330360
  0.949000001     -0.942464113
  0.959999979      -1.04131758
  0.971000016      -1.11280322
  0.981999993      -1.15664864
  0.992999971      -1.17338467
   1.00399995      -1.16439486
   1.01499999      -1.13176501
   1.02600002      -1.07813764
   1.03699994      -1.00667751
   1.04799998     -0.920840800
   1.05900002     -0.824105144
   1.07000005     -0.719977856
   1.08099997     -0.611939847
   1.09200001     -0.503185868
   1.10300004     -0.396560401
   1.11399996     -0.294578671
   1.12500000     -0.199274555
   1.13600004     -0.112200513
   1.14699996      -3.45713943E-02
   1.15799999       3.28443423E-02
   1.16900003       8.98138434E-02
   1.17999995      0.136430845
   1.19099998      0.173028931
   1.20200002      0.200255439
   1.21300006      0.218919426
   1.22399998      0.229852617
   1.23500001      0.234037220
   1.24600005      0.232599929
   1.25699997      0.226597473
   1.26800001      0.216978982
   1.27900004      0.204649478
   1.28999996      0.190414041
   1.30100000      0.174966678
   1.31200004      0.158937305
   1.32299995      0.142831638
   1.33399999      0.127017736
   1.34500003      0.111831665
   1.35599995       9.75524932E-02
   1.36699998       8.43068957E-02
   1.37800002       7.21581355E-02
   1.38900006       6.11878224E-02
