 -0.959999979       0.00000000
 -0.925000012       0.00000000
 -0.889999986      -7.23816619E-39
 -0.855000019      -1.44763310E-38
 -0.819999993      -2.17144958E-38
 -0.785000026       1.55555568E-13
 -0.750000000       4.89883178E-21
 -0.714999974      -1.55555554E-13
 -0.680000007       5.91111144E-12
 -0.644999981       1.19777790E-11
 -0.610000014      -1.86666546E-12
 -0.574999988       4.20000189E-12
 -0.540000021       5.00888914E-11
 -0.504999995       3.62444484E-11
 -0.469999999       6.22222343E-11
 -0.435000002       4.06777806E-10
 -0.400000006      -1.24755539E-10
 -0.365000010      -1.13415555E-09
 -0.330000013      -7.09955594E-10
 -0.294999987       3.28221859E-11
 -0.259999990      -1.45444456E-09
 -0.224999994       4.03355488E-10
 -0.189999998       6.24337826E-09
 -0.155000001       6.90651225E-09
 -0.119999997       1.27773470E-09
  -8.50000009E-02  -5.14748733E-09
  -5.00000007E-02  -7.43119832E-09
  -1.49999997E-02   7.98158650E-10
   1.99999996E-02   2.65595923E-09
   5.49999997E-02  -1.65123755E-08
   9.00000036E-02  -1.78403532E-08
  0.125000000       7.59220242E-09
  0.159999996       2.01223571E-08
  0.194999993      -1.48554040E-08
  0.230000004      -3.61343204E-08
  0.264999986       4.26201936E-08
  0.300000012       2.61199489E-08
  0.335000008      -2.19194973E-08
  0.370000005       2.32250574E-08
  0.405000001       4.67063188E-08
  0.439999998      -4.32261196E-08
  0.474999994      -3.34436976E-08
  0.509999990       2.50811265E-08
  0.545000017      -3.36306769E-08
  0.579999983      -5.36352829E-08
  0.615000010       3.41190578E-08
  0.649999976       6.59801414E-09
  0.685000002      -2.12416094E-08
  0.720000029       1.43157450E-08
  0.754999995      -2.53112589E-08
  0.790000021      -6.87611958E-08
  0.824999988       5.56793580E-08
  0.860000014       9.85639943E-08
  0.894999981      -1.40969805E-08
  0.930000007      -3.77154628E-08
  0.964999974       7.88726306E-10
   1.00000000      -3.58914463E-08
   1.03499997      -7.26316784E-09
   1.07000005       3.14003117E-08
   1.10500002      -2.42750549E-08
   1.13999999      -1.54384203E-08
   1.17499995       4.81935949E-08
   1.21000004      -5.41135989E-08
   1.24500000      -1.39217590E-07
   1.27999997       9.83309523E-09
   1.31500006       1.39769099E-07
   1.35000002       5.27536308E-08
   1.38499999      -4.15891215E-08
   1.41999996      -3.27126735E-08
   1.45500004      -2.60662691E-08
   1.49000001      -2.26056418E-08
   1.52499998       1.03234310E-08
   1.55999994       4.64382808E-08
   1.59500003       3.06249497E-08
   1.63000000      -5.16118490E-08
