 -0.959999979       0.00000000
 -0.925000012      -4.39134595E-07
 -0.889999986      -1.90070011E-06
 -0.855000019      -6.30429668E-06
 -0.819999993      -1.55470098E-05
 -0.785000026      -2.56470757E-05
 -0.750000000      -4.29618885E-05
 -0.714999974      -1.06487023E-04
 -0.680000007      -2.44297844E-04
 -0.644999981      -4.32505214E-04
 -0.610000014      -6.93638809E-04
 -0.574999988      -1.15951290E-03
 -0.540000021      -1.89018622E-03
 -0.504999995      -2.76315049E-03
 -0.469999999      -3.66429635E-03
 -0.435000002      -4.52165399E-03
 -0.400000006      -5.02780452E-03
 -0.365000010      -4.65117581E-03
 -0.330000013      -2.96271825E-03
 -0.294999987       3.39444145E-04
 -0.259999990       5.53454552E-03
 -0.224999994       1.26568330E-02
 -0.189999998       2.14713849E-02
 -0.155000001       3.20059434E-02
 -0.119999997       4.49081548E-02
  -8.50000009E-02   6.12858534E-02
  -5.00000007E-02   8.23711380E-02
  -1.49999997E-02  0.108603321
   1.99999996E-02  0.137611315
   5.49999997E-02  0.161928728
   9.00000036E-02  0.167681351
  0.125000000      0.134873286
  0.159999996       4.00634743E-02
  0.194999993     -0.137813181
  0.230000004     -0.409069479
  0.264999986     -0.764123678
  0.300000012      -1.16607201
  0.335000008      -1.54835939
  0.370000005      -1.82067955
  0.405000001      -1.88401604
  0.439999998      -1.65317154
  0.474999994      -1.08246946
  0.509999990     -0.187257901
  0.545000017      0.946696579
  0.579999983       2.17022991
  0.615000010       3.29378176
  0.649999976       4.12223244
  0.685000002       4.49391508
  0.720000029       4.31415129
  0.754999995       3.57585764
  0.790000021       2.36396122
  0.824999988      0.842895150
  0.860000014     -0.771504641
  0.894999981      -2.25064993
  0.930000007      -3.39390397
  0.964999974      -4.06252432
   1.00000000      -4.20028162
   1.03499997      -3.83707070
   1.07000005      -3.07548738
   1.10500002      -2.06515670
   1.13999999     -0.973047614
   1.17499995       4.34737019E-02
   1.21000004      0.858307123
   1.24500000       1.39226353
   1.27999997       1.62107694
   1.31500006       1.57420921
   1.35000002       1.32407367
   1.38499999      0.966374993
   1.41999996      0.595009148
   1.45500004      0.279346794
   1.49000001       5.26559576E-02
   1.52499998      -8.48227143E-02
   1.55999994     -0.152067393
   1.59500003     -0.171216026
   1.63000000     -0.157554567
