 -0.959999979       0.00000000
 -0.925000012      -2.18143542E-21
 -0.889999986      -4.36287084E-21
 -0.855000019       1.15395670E-12
 -0.819999993      -2.60874178E-12
 -0.785000026      -2.14661492E-12
 -0.750000000      -2.47042022E-11
 -0.714999974      -2.69083696E-11
 -0.680000007       5.14253709E-11
 -0.644999981      -1.01002297E-10
 -0.610000014      -2.83939788E-10
 -0.574999988      -1.06553066E-09
 -0.540000021       1.64210645E-09
 -0.504999995       2.58014521E-09
 -0.469999999      -2.73176970E-09
 -0.435000002       1.62329206E-09
 -0.400000006       6.63354882E-09
 -0.365000010       1.82662052E-10
 -0.330000013      -8.58253024E-09
 -0.294999987      -8.54453752E-09
 -0.259999990       1.35578251E-08
 -0.224999994       3.16822728E-08
 -0.189999998      -1.27671580E-08
 -0.155000001      -1.67461387E-08
 -0.119999997       6.75152450E-08
  -8.50000009E-02  -6.82088270E-08
  -5.00000007E-02  -1.80246374E-07
  -1.49999997E-02   7.94900714E-08
   1.99999996E-02  -7.92079859E-08
   5.49999997E-02  -2.20245937E-07
   9.00000036E-02   3.90965795E-07
  0.125000000       5.46936519E-07
  0.159999996      -7.92144164E-08
  0.194999993      -3.33467625E-07
  0.230000004       6.08595396E-09
  0.264999986      -7.37670591E-09
  0.300000012      -3.46496989E-07
  0.335000008       2.11835669E-07
  0.370000005       6.97064820E-07
  0.405000001      -2.58135913E-07
  0.439999998      -1.27862222E-06
  0.474999994      -5.79336074E-07
  0.509999990       9.25169275E-07
  0.545000017       7.06940057E-07
  0.579999983       7.85089327E-08
  0.615000010       5.26856013E-07
  0.649999976       4.27969660E-08
  0.685000002      -1.56138663E-06
  0.720000029      -1.37408654E-06
  0.754999995       7.26873338E-07
  0.790000021       1.46890852E-06
  0.824999988      -1.05917429E-07
  0.860000014      -9.83916038E-07
  0.894999981       1.07195625E-07
  0.930000007       8.62519130E-07
  0.964999974       1.57408991E-07
   1.00000000      -7.64841900E-07
   1.03499997      -5.63745914E-07
   1.07000005       2.39103031E-07
   1.10500002       6.53514121E-07
   1.13999999       5.97793758E-07
   1.17499995       4.79926257E-07
   1.21000004       4.88903254E-07
   1.24500000      -1.24674912E-07
   1.27999997      -1.23579559E-06
   1.31500006      -7.43349347E-07
   1.35000002       7.00831038E-07
   1.38499999       9.91978695E-08
   1.41999996      -1.11481813E-06
   1.45500004       2.60378727E-07
   1.49000001       1.61397816E-06
   1.52499998       1.15421450E-08
   1.55999994      -1.18818809E-06
   1.59500003      -1.98598826E-07
   1.63000000       1.38273521E-07
