 -0.959999979       0.00000000
 -0.925000012      -6.82539962E-07
 -0.889999986      -1.09766711E-06
 -0.855000019      -1.48426830E-06
 -0.819999993      -3.44624391E-06
 -0.785000026      -8.10779693E-06
 -0.750000000      -1.65171678E-05
 -0.714999974      -3.04312689E-05
 -0.680000007      -5.25212163E-05
 -0.644999981      -8.66513146E-05
 -0.610000014      -1.34279413E-04
 -0.574999988      -1.88491438E-04
 -0.540000021      -2.32556034E-04
 -0.504999995      -2.38702502E-04
 -0.469999999      -1.62891651E-04
 -0.435000002       5.15868560E-05
 -0.400000006       4.54393390E-04
 -0.365000010       1.06169016E-03
 -0.330000013       1.82295800E-03
 -0.294999987       2.57977773E-03
 -0.259999990       3.04650003E-03
 -0.224999994       2.84667057E-03
 -0.189999998       1.59901415E-03
 -0.155000001      -9.74266906E-04
 -0.119999997      -4.94408933E-03
  -8.50000009E-02  -1.01321880E-02
  -5.00000007E-02  -1.62083264E-02
  -1.49999997E-02  -2.29526293E-02
   1.99999996E-02  -3.06123849E-02
   5.49999997E-02  -4.02058139E-02
   9.00000036E-02  -5.35783693E-02
  0.125000000      -7.30209202E-02
  0.159999996     -0.100377850
  0.194999993     -0.135802403
  0.230000004     -0.176548272
  0.264999986     -0.216315463
  0.300000012     -0.245626658
  0.335000008     -0.253446400
  0.370000005     -0.229812935
  0.405000001     -0.168807805
  0.439999998      -7.09509999E-02
  0.474999994       5.58071993E-02
  0.509999990      0.196924597
  0.545000017      0.333779335
  0.579999983      0.447192132
  0.615000010      0.521063447
  0.649999976      0.545294762
  0.685000002      0.517423868
  0.720000029      0.442756861
  0.754999995      0.333093017
  0.790000021      0.204352826
  0.824999988       7.35912919E-02
  0.860000014      -4.39762138E-02
  0.894999981     -0.137287512
  0.930000007     -0.200623289
  0.964999974     -0.233542964
   1.00000000     -0.239802018
   1.03499997     -0.225750908
   1.07000005     -0.198747531
   1.10500002     -0.165893182
   1.13999999     -0.133121938
   1.17499995     -0.104552165
   1.21000004      -8.20840597E-02
   1.24500000      -6.53667897E-02
   1.27999997      -5.22988960E-02
   1.31500006      -4.00667004E-02
   1.35000002      -2.64197886E-02
   1.38499999      -1.06528196E-02
   1.41999996       6.16772473E-03
   1.45500004       2.18144283E-02
   1.49000001       3.39689814E-02
   1.52499998       4.11310196E-02
   1.55999994       4.28978056E-02
   1.59500003       3.96028198E-02
   1.63000000       3.17374952E-02
