 -0.800000012       0.00000000
 -0.788999975       0.00000000
 -0.777999997       0.00000000
 -0.767000020       0.00000000
 -0.755999982       0.00000000
 -0.745000005       2.87178891E-13
 -0.734000027      -1.37521721E-12
 -0.722999990       5.88009415E-12
 -0.712000012      -1.16918662E-11
 -0.700999975      -5.23368501E-12
 -0.689999998       6.66818059E-11
 -0.679000020      -9.22595264E-11
 -0.667999983      -9.21086402E-11
 -0.657000005       4.20618235E-10
 -0.646000028      -2.29864155E-10
 -0.634999990      -9.32485422E-10
 -0.624000013       1.34599487E-09
 -0.612999976       1.22790578E-09
 -0.601999998      -3.06078163E-09
 -0.591000021      -1.02834152E-09
 -0.579999983       3.06849057E-09
 -0.569000006       1.60114066E-09
 -0.558000028       4.71425565E-09
 -0.546999991      -6.66489219E-09
 -0.536000013      -3.03552632E-08
 -0.524999976       1.94352285E-08
 -0.513999999       8.32556353E-08
 -0.503000021      -3.38748798E-08
 -0.492000014      -1.57691787E-07
 -0.481000006       2.83835355E-08
 -0.469999999       2.10878738E-07
 -0.458999991       1.82446271E-08
 -0.448000014      -1.57168230E-07
 -0.437000006      -7.72820172E-08
 -0.425999999      -7.30832426E-08
 -0.414999992       3.66819854E-08
 -0.404000014       3.98785318E-07
 -0.393000007       1.91836719E-07
 -0.381999999      -5.43410124E-07
 -0.370999992      -4.30359336E-07
 -0.360000014       3.78092977E-07
 -0.349000007       3.80862360E-07
 -0.338000000      -2.37419172E-07
 -0.326999992      -3.80020651E-07
 -0.316000015      -5.32115934E-08
 -0.305000007       6.07472202E-07
 -0.294000000       1.37596351E-06
 -0.282999992       1.45153263E-06
 -0.272000015       1.63810728E-06
 -0.261000007       3.54163467E-06
 -0.250000000       5.76829780E-06
 -0.238999993       6.57748478E-06
 -0.228000000       8.27428812E-06
 -0.216999993       1.30332019E-05
 -0.206000000       1.92130447E-05
 -0.194999993       2.58545915E-05
 -0.184000000       3.44634791E-05
 -0.172999993       4.58692775E-05
 -0.162000000       6.13790762E-05
 -0.150999993       8.37668995E-05
 -0.140000001       1.13360045E-04
 -0.128999993       1.49127562E-04
 -0.118000001       1.94144959E-04
 -0.107000001       2.53601844E-04
  -9.60000008E-02   3.30318522E-04
  -8.50000009E-02   4.27040533E-04
  -7.40000010E-02   5.48340671E-04
  -6.30000010E-02   6.98868069E-04
  -5.20000011E-02   8.84805631E-04
  -4.10000011E-02   1.11487100E-03
  -2.99999993E-02   1.39663182E-03
  -1.89999994E-02   1.73688564E-03
  -8.00000038E-03   2.14606221E-03
   3.00000003E-03   2.63637700E-03
   1.40000004E-02   3.21824243E-03
   2.50000004E-02   3.90264555E-03
   3.59999985E-02   4.70192311E-03
   4.69999984E-02   5.62699465E-03
   5.79999983E-02   6.68911077E-03
   6.89999983E-02   7.90101290E-03
   7.99999982E-02   9.27152578E-03
   9.09999982E-02   1.08042350E-02
  0.101999998       1.25024142E-02
  0.112999998       1.43679045E-02
  0.123999998       1.63961723E-02
  0.135000005       1.85769573E-02
  0.145999998       2.08948478E-02
  0.157000005       2.33264938E-02
  0.167999998       2.58417241E-02
  0.179000005       2.84054484E-02
  0.189999998       3.09743788E-02
  0.201000005       3.34959477E-02
  0.211999997       3.59120406E-02
  0.223000005       3.81595045E-02
  0.233999997       4.01689038E-02
  0.245000005       4.18676399E-02
  0.256000012       4.31824662E-02
  0.266999990       4.40388881E-02
  0.277999997       4.43635806E-02
  0.289000005       4.40891124E-02
  0.300000012       4.31553647E-02
  0.310999990       4.15099971E-02
  0.321999997       3.91115397E-02
  0.333000004       3.59317772E-02
  0.344000012       3.19559276E-02
  0.354999989       2.71841064E-02
  0.365999997       2.16336437E-02
  0.377000004       1.53383268E-02
  0.388000011       8.34618509E-03
  0.398999989       7.19715958E-04
  0.409999996      -7.46430224E-03
  0.421000004      -1.61181409E-02
  0.432000011      -2.51450930E-02
  0.442999989      -3.44393738E-02
  0.453999996      -4.38892134E-02
  0.465000004      -5.33810407E-02
  0.476000011      -6.27999604E-02
  0.486999989      -7.20302537E-02
  0.497999996      -8.09580833E-02
  0.509000003      -8.94715115E-02
  0.519999981      -9.74600092E-02
  0.531000018     -0.104816683
  0.541999996     -0.111438453
  0.552999973     -0.117223389
  0.564000010     -0.122070968
  0.574999988     -0.125883982
  0.586000025     -0.128567919
  0.597000003     -0.130031049
  0.607999980     -0.130186677
  0.619000018     -0.128954753
  0.629999995     -0.126264215
  0.640999973     -0.122056797
  0.652000010     -0.116291158
  0.662999988     -0.108946614
  0.674000025     -0.100027330
  0.685000002      -8.95659178E-02
  0.695999980      -7.76269734E-02
  0.707000017      -6.43108338E-02
  0.717999995      -4.97555062E-02
  0.728999972      -3.41366678E-02
  0.740000010      -1.76665839E-02
  0.750999987      -5.91132208E-04
  0.762000024       1.68145951E-02
  0.773000002       3.42515148E-02
  0.783999979       5.14038019E-02
  0.795000017       6.79478049E-02
  0.805999994       8.35616142E-02
  0.816999972       9.79355201E-02
  0.828000009      0.110782310
  0.838999987      0.121846102
  0.850000024      0.130910873
  0.861000001      0.137808785
  0.871999979      0.142425895
  0.883000016      0.144705847
  0.893999994      0.144651979
  0.904999971      0.142326638
  0.916000009      0.137847871
  0.926999986      0.131384984
  0.938000023      0.123152718
  0.949000001      0.113403611
  0.959999979      0.102418453
  0.971000016       9.04947072E-02
  0.981999993       7.79368132E-02
  0.992999971       6.50483146E-02
   1.00399995       5.21222427E-02
   1.01499999       3.94316725E-02
   1.02600002       2.72235274E-02
   1.03699994       1.57127231E-02
   1.04799998       5.07664913E-03
   1.05900002      -4.54580598E-03
   1.07000005      -1.30537329E-02
   1.08099997      -2.03853622E-02
   1.09200001      -2.65164152E-02
   1.10300004      -3.14554386E-02
   1.11399996      -3.52406874E-02
   1.12500000      -3.79360914E-02
   1.13600004      -3.96247283E-02
   1.14699996      -4.04045843E-02
   1.15799999      -4.03853245E-02
   1.16900003      -3.96819413E-02
   1.17999995      -3.84093933E-02
   1.19099998      -3.66805568E-02
   1.20200002      -3.46028619E-02
   1.21300006      -3.22749317E-02
   1.22399998      -2.97865644E-02
   1.23500001      -2.72181313E-02
   1.24600005      -2.46377159E-02
   1.25699997      -2.21008640E-02
   1.26800001      -1.96525287E-02
   1.27900004      -1.73273776E-02
   1.28999996      -1.51502993E-02
   1.30100000      -1.31382532E-02
   1.31200004      -1.13010108E-02
   1.32299995      -9.64167248E-03
   1.33399999      -8.15875921E-03
   1.34500003      -6.84729312E-03
   1.35599995      -5.69847925E-03
   1.36699998      -4.70116269E-03
   1.37800002      -3.84372217E-03
   1.38900006      -3.11364816E-03
