 -0.959999979       0.00000000
 -0.925000012      -8.15253006E-05
 -0.889999986      -7.98146706E-04
 -0.855000019       1.07127090E-03
 -0.819999993       1.02346763E-03
 -0.785000026      -3.70874000E-03
 -0.750000000      -1.95249810E-03
 -0.714999974       3.33814463E-03
 -0.680000007      -6.50195172E-04
 -0.644999981      -2.08304659E-03
 -0.610000014       8.09253100E-03
 -0.574999988       1.78713016E-02
 -0.540000021       3.39065343E-02
 -0.504999995       6.76880926E-02
 -0.469999999      0.105253957
 -0.435000002      0.146012023
 -0.400000006      0.200820476
 -0.365000010      0.250445008
 -0.330000013      0.288126200
 -0.294999987      0.353087157
 -0.259999990      0.487958401
 -0.224999994      0.749514997
 -0.189999998       1.22624242
 -0.155000001       1.94641042
 -0.119999997       2.79554534
  -8.50000009E-02   3.50079060
  -5.00000007E-02   3.60037947
  -1.49999997E-02   2.49482179
   1.99999996E-02 -0.325195462
   5.49999997E-02  -5.00487089
   9.00000036E-02  -11.0963955
  0.125000000      -17.4042397
  0.159999996      -22.0787544
  0.194999993      -23.0620575
  0.230000004      -18.7444859
  0.264999986      -8.65128422
  0.300000012       6.04271555
  0.335000008       22.4787388
  0.370000005       36.7297897
  0.405000001       44.8985634
  0.439999998       44.3652229
  0.474999994       34.7585869
  0.509999990       18.1973572
  0.545000017      -1.37168288
  0.579999983      -19.4508629
  0.615000010      -32.3780861
  0.649999976      -38.2936783
  0.685000002      -37.3076859
  0.720000029      -30.9154320
  0.754999995      -21.1268692
  0.790000021      -9.78677368
  0.824999988       1.65467024
  0.860000014       11.9253759
  0.894999981       19.6316090
  0.930000007       23.3115063
  0.964999974       21.9304829
   1.00000000       15.5673504
   1.03499997       5.86212301
   1.07000005      -4.22293520
   1.10500002      -11.4094563
   1.13999999      -13.4346590
   1.17499995      -10.0734644
   1.21000004      -3.30643415
   1.24500000       3.57593822
   1.27999997       7.52190065
   1.31500006       7.11679792
   1.35000002       3.17397904
   1.38499999      -1.77502000
   1.41999996      -4.87836647
   1.45500004      -4.47930384
   1.49000001     -0.927567482
   1.52499998       3.66453266
   1.55999994       6.57803679
   1.59500003       5.97606993
   1.63000000       1.89830506
