 -0.959999979       0.00000000
 -0.925000012       4.68220678E-05
 -0.889999986       9.82068741E-05
 -0.855000019       1.85607292E-04
 -0.819999993       4.38217627E-04
 -0.785000026       9.89834894E-04
 -0.750000000       2.06027157E-03
 -0.714999974       4.10815887E-03
 -0.680000007       7.84524903E-03
 -0.644999981       1.42488200E-02
 -0.610000014       2.45994907E-02
 -0.574999988       4.02918085E-02
 -0.540000021       6.23584837E-02
 -0.504999995       9.07746777E-02
 -0.469999999      0.123455450
 -0.435000002      0.155086622
 -0.400000006      0.176351294
 -0.365000010      0.174112365
 -0.330000013      0.132979855
 -0.294999987       3.86244096E-02
 -0.259999990     -0.117378369
 -0.224999994     -0.332386166
 -0.189999998     -0.588955522
 -0.155000001     -0.854169309
 -0.119999997      -1.08318114
  -8.50000009E-02  -1.22696769
  -5.00000007E-02  -1.24256277
  -1.49999997E-02  -1.10293043
   1.99999996E-02 -0.803835690
   5.49999997E-02 -0.366155267
   9.00000036E-02  0.166537374
  0.125000000      0.733904541
  0.159999996       1.26657367
  0.194999993       1.69464266
  0.230000004       1.95683157
  0.264999986       2.01022315
  0.300000012       1.83968139
  0.335000008       1.46472669
  0.370000005      0.940591991
  0.405000001      0.350681543
  0.439999998     -0.209671959
  0.474999994     -0.654579997
  0.509999990     -0.927764773
  0.545000017      -1.01465464
  0.579999983     -0.941982269
  0.615000010     -0.765221298
  0.649999976     -0.548937321
  0.685000002     -0.347478688
  0.720000029     -0.192611307
  0.754999995      -9.13202390E-02
  0.790000021      -3.25718038E-02
  0.824999988       1.51473435E-03
  0.860000014       2.54337937E-02
  0.894999981       4.48189192E-02
  0.930000007       5.68755977E-02
  0.964999974       5.52014038E-02
   1.00000000       3.58195677E-02
   1.03499997       1.24808948E-03
   1.07000005      -3.91984582E-02
   1.10500002      -7.27945268E-02
   1.13999999      -8.87342244E-02
   1.17499995      -8.27766508E-02
   1.21000004      -5.89429773E-02
   1.24500000      -2.75016278E-02
   1.27999997      -2.52850354E-04
   1.31500006       1.46685028E-02
   1.35000002       1.60316881E-02
   1.38499999       9.28482786E-03
   1.41999996       3.11786681E-03
   1.45500004       4.65451786E-03
   1.49000001       1.56854242E-02
   1.52499998       3.17896344E-02
   1.55999994       4.47596610E-02
   1.59500003       4.70084772E-02
   1.63000000       3.55794318E-02
