 -0.800000012       0.00000000
 -0.788999975       0.00000000
 -0.777999997       0.00000000
 -0.767000020       0.00000000
 -0.755999982      -9.58458604E-25
 -0.745000005       3.85930710E-18
 -0.734000027      -9.75500052E-17
 -0.722999990       1.30931334E-17
 -0.712000012       3.45437718E-16
 -0.700999975      -1.65128914E-16
 -0.689999998       4.06760637E-15
 -0.679000020       4.30954058E-15
 -0.667999983      -1.04411176E-14
 -0.657000005       1.92382866E-14
 -0.646000028       1.69585263E-14
 -0.634999990      -3.50470487E-14
 -0.624000013      -2.30328689E-14
 -0.612999976       1.69785755E-14
 -0.601999998      -1.38722059E-14
 -0.591000021       1.47634048E-14
 -0.579999983       1.77494724E-13
 -0.569000006      -3.34073759E-14
 -0.558000028      -1.34488991E-13
 -0.546999991       1.51092192E-13
 -0.536000013       3.79542826E-14
 -0.524999976      -3.92835693E-13
 -0.513999999       1.29744949E-14
 -0.503000021       2.09808828E-13
 -0.492000014      -7.37969744E-13
 -0.481000006      -7.55041103E-14
 -0.469999999       1.92241860E-12
 -0.458999991      -6.86156535E-13
 -0.448000014      -2.99610879E-12
 -0.437000006       1.22662113E-12
 -0.425999999       1.29771226E-12
 -0.414999992      -2.16097366E-12
 -0.404000014       4.23184664E-12
 -0.393000007       5.62018422E-13
 -0.381999999      -6.85127476E-12
 -0.370999992       1.54444830E-13
 -0.360000014      -2.52035350E-12
 -0.349000007      -1.58836746E-11
 -0.338000000       3.28637777E-11
 -0.326999992       3.35033598E-11
 -0.316000015      -8.09837891E-11
 -0.305000007      -1.71529908E-11
 -0.294000000       1.36733749E-10
 -0.282999992      -3.77236020E-11
 -0.272000015      -1.75343587E-10
 -0.261000007       6.16240323E-11
 -0.250000000       2.02112285E-10
 -0.238999993      -9.21585655E-11
 -0.228000000      -3.35804891E-11
 -0.216999993       1.23594010E-10
 -0.206000000      -3.78858944E-10
 -0.194999993       1.72770548E-10
 -0.184000000       6.51133591E-10
 -0.172999993      -5.76900250E-10
 -0.162000000      -3.57473634E-10
 -0.150999993       1.15187915E-09
 -0.140000001      -4.06889078E-10
 -0.128999993      -1.82586080E-09
 -0.118000001       5.67170477E-10
 -0.107000001       1.56668800E-09
  -9.60000008E-02  -1.88335014E-09
  -8.50000009E-02  -1.39295897E-09
  -7.40000010E-02   4.98691577E-09
  -6.30000010E-02   2.26633401E-09
  -5.20000011E-02  -7.30727123E-09
  -4.10000011E-02  -2.38878473E-09
  -2.99999993E-02   1.09645892E-08
  -1.89999994E-02   1.45207402E-09
  -8.00000038E-03  -8.77786466E-09
   3.00000003E-03   2.22332819E-09
   1.40000004E-02   2.04096318E-09
   2.50000004E-02  -7.62825625E-09
   3.59999985E-02   5.34283773E-09
   4.69999984E-02   2.02686543E-08
   5.79999983E-02   7.36055439E-10
   6.89999983E-02  -1.29233344E-08
   7.99999982E-02  -7.91839216E-09
   9.09999982E-02  -1.45450239E-08
  0.101999998      -6.09347195E-09
  0.112999998       1.90474001E-08
  0.123999998      -7.81413378E-10
  0.135000005      -6.01304295E-09
  0.145999998       3.33600809E-08
  0.157000005       1.15859340E-08
  0.167999998      -3.97556477E-08
  0.179000005      -1.77045862E-08
  0.189999998       2.29335235E-08
  0.201000005       9.96966598E-09
  0.211999997      -5.42692391E-10
  0.223000005       1.37540876E-08
  0.233999997       3.94292266E-10
  0.245000005      -6.58781651E-09
  0.256000012       7.43138528E-09
  0.266999990      -5.16570919E-09
  0.277999997      -1.66753811E-08
  0.289000005       8.28556779E-09
  0.300000012       2.57942272E-08
  0.310999990       2.86409048E-08
  0.321999997       4.19644657E-08
  0.333000004       1.19890640E-08
  0.344000012      -3.28836380E-09
  0.354999989      -2.18680380E-08
  0.365999997      -7.12917867E-08
  0.377000004      -4.70947583E-08
  0.388000011       3.04693089E-08
  0.398999989       7.76004327E-09
  0.409999996      -8.27997511E-08
  0.421000004       2.04986534E-08
  0.432000011       9.62466729E-08
  0.442999989      -4.20406892E-08
  0.453999996      -9.14823701E-08
  0.465000004       2.47935876E-08
  0.476000011       4.17866026E-08
  0.486999989      -2.76342131E-08
  0.497999996      -6.75455780E-09
  0.509000003       1.94021297E-08
  0.519999981      -1.25806858E-08
  0.531000018      -4.10840961E-09
  0.541999996       5.53686235E-08
  0.552999973       5.61774485E-08
  0.564000010      -3.36912507E-08
  0.574999988      -8.19457497E-08
  0.586000025       2.03322550E-08
  0.597000003       8.69259793E-08
  0.607999980      -1.66870624E-08
  0.619000018      -5.72390952E-08
  0.629999995       9.38126465E-10
  0.640999973      -1.16661747E-08
  0.652000010      -6.12190050E-08
  0.662999988      -2.31310615E-08
  0.674000025       4.90303904E-08
  0.685000002       3.53812162E-08
  0.695999980      -4.09268575E-09
  0.707000017       7.60673444E-08
  0.717999995       1.33925781E-07
  0.728999972      -2.55917811E-08
  0.740000010      -2.52230507E-07
  0.750999987      -1.75213856E-07
  0.762000024       9.57187964E-08
  0.773000002       1.46377076E-07
  0.783999979       2.16870166E-08
  0.795000017       5.81781698E-08
  0.805999994       1.05401632E-07
  0.816999972      -1.14900196E-07
  0.828000009      -2.30121330E-07
  0.838999987       4.14482919E-08
  0.850000024       2.04012807E-07
  0.861000001      -1.68571948E-08
  0.871999979      -1.12454345E-07
  0.883000016       4.41700330E-08
  0.893999994       4.91357852E-08
  0.904999971      -3.86370189E-08
  0.916000009       4.93683139E-08
  0.926999986       9.73804433E-08
  0.938000023      -3.35235804E-08
  0.949000001      -8.15427583E-08
  0.959999979      -1.99171470E-08
  0.971000016      -1.35366056E-08
  0.981999993       4.28395275E-09
  0.992999971       8.86470488E-08
   1.00399995       3.26333698E-08
   1.01499999      -1.26502727E-07
   1.02600002      -1.01026387E-07
   1.03699994       5.77802552E-08
   1.04799998       8.26816304E-08
   1.05900002       1.99973424E-08
   1.07000005       4.45690240E-08
   1.08099997       4.99220576E-08
   1.09200001      -4.83544333E-08
   1.10300004      -1.01173249E-07
   1.11399996      -4.12811048E-08
   1.12500000       4.90521845E-09
   1.13600004      -6.16217077E-09
   1.14699996      -4.37065850E-09
   1.15799999       2.81197234E-08
   1.16900003       5.92401541E-08
   1.17999995       5.55350255E-08
   1.19099998       1.52498920E-08
   1.20200002      -1.57328000E-08
   1.21300006      -3.56863374E-08
   1.22399998      -6.23088283E-08
   1.23500001      -4.38749792E-09
   1.24600005       1.39147886E-07
   1.25699997       1.27758085E-07
   1.26800001      -7.99006799E-08
   1.27900004      -1.48235230E-07
   1.28999996       9.07921471E-09
   1.30100000       6.28249524E-08
   1.31200004      -4.38455530E-08
   1.32299995      -2.35491857E-08
   1.33399999       7.15619848E-08
   1.34500003      -4.14584278E-08
   1.35599995      -1.89327352E-07
   1.36699998      -4.72626098E-08
   1.37800002       1.44865709E-07
   1.38900006       3.29962049E-08
