 -0.800000012       0.00000000
 -0.788999975      -1.49273602E-02
 -0.777999997      -1.36254188E-02
 -0.767000020       6.87019452E-02
 -0.755999982       3.10128741E-02
 -0.745000005     -0.144355059
 -0.734000027      -3.41656208E-02
 -0.722999990      0.186118364
 -0.712000012      -5.29598631E-03
 -0.700999975     -0.181482762
 -0.689999998       4.40385193E-02
 -0.679000020      0.104260802
 -0.667999983      -6.58803731E-02
 -0.657000005      -2.67611239E-02
 -0.646000028      -3.99895646E-02
 -0.634999990     -0.131831914
 -0.624000013       7.38812089E-02
 -0.612999976       7.03689829E-02
 -0.601999998     -0.292683274
 -0.591000021     -0.142133683
 -0.579999983      0.142379507
 -0.569000006     -0.275444388
 -0.558000028     -0.406842828
 -0.546999991       7.32324347E-02
 -0.536000013     -0.234556064
 -0.524999976     -0.874693036
 -0.513999999     -0.502996027
 -0.503000021     -0.317468792
 -0.492000014      -1.11117911
 -0.481000006      -1.31144083
 -0.469999999     -0.993592560
 -0.458999991      -1.63375294
 -0.448000014      -2.43432641
 -0.437000006      -2.55009627
 -0.425999999      -3.09642148
 -0.414999992      -4.03534555
 -0.404000014      -4.49726200
 -0.393000007      -5.36106205
 -0.381999999      -6.90555620
 -0.370999992      -7.89984798
 -0.360000014      -8.83479500
 -0.349000007      -10.7248983
 -0.338000000      -12.4379625
 -0.326999992      -13.5856619
 -0.316000015      -15.5357513
 -0.305000007      -17.8235397
 -0.294000000      -19.1762161
 -0.282999992      -20.5836620
 -0.272000015      -22.6634388
 -0.261000007      -24.0173702
 -0.250000000      -24.5002060
 -0.238999993      -25.1273956
 -0.228000000      -25.2454987
 -0.216999993      -24.0707989
 -0.206000000      -22.3007011
 -0.194999993      -19.8816986
 -0.184000000      -15.9216003
 -0.172999993      -10.7888651
 -0.162000000      -4.89507627
 -0.150999993       2.59588099
 -0.140000001       11.7157850
 -0.128999993       21.5154877
 -0.118000001       32.2181511
 -0.107000001       44.2827225
  -9.60000008E-02   56.8050385
  -8.50000009E-02   69.2687225
  -7.40000010E-02   82.1292114
  -6.30000010E-02   94.6987839
  -5.20000011E-02   105.749290
  -4.10000011E-02   115.436630
  -2.99999993E-02   123.782211
  -1.89999994E-02   129.548035
  -8.00000038E-03   132.263855
   3.00000003E-03   132.199173
   1.40000004E-02   128.606369
   2.50000004E-02   120.971672
   3.59999985E-02   109.976707
   4.69999984E-02   95.5234375
   5.79999983E-02   77.0355530
   6.89999983E-02   55.3720512
   7.99999982E-02   31.3869858
   9.09999982E-02   4.87149382
  0.101999998      -23.3735962
  0.112999998      -51.8041115
  0.123999998      -80.2047195
  0.135000005      -108.211304
  0.145999998      -134.087448
  0.157000005      -156.970428
  0.167999998      -176.914459
  0.179000005      -192.841064
  0.189999998      -203.785721
  0.201000005      -210.139069
  0.211999997      -211.624863
  0.223000005      -207.415451
  0.233999997      -198.158920
  0.245000005      -184.726761
  0.256000012      -166.845825
  0.266999990      -145.018784
  0.277999997      -120.662491
  0.289000005      -94.1712494
  0.300000012      -65.9006119
  0.310999990      -37.4577293
  0.321999997      -9.83515644
  0.333000004       17.0480099
  0.344000012       42.3343506
  0.354999989       64.7469025
  0.365999997       84.2305145
  0.377000004       100.721794
  0.388000011       113.367958
  0.398999989       122.196609
  0.409999996       127.914917
  0.421000004       130.209396
  0.432000011       128.796921
  0.442999989       124.672821
  0.453999996       118.411865
  0.465000004       109.729027
  0.476000011       99.3686523
  0.486999989       88.4042740
  0.497999996       76.5212479
  0.509000003       63.7435150
  0.519999981       51.4875145
  0.531000018       40.1310692
  0.541999996       28.9059315
  0.552999973       18.3570843
  0.564000010       9.36592007
  0.574999988       1.33354938
  0.586000025      -5.95184755
  0.597000003      -11.5930672
  0.607999980      -15.8279629
  0.619000018      -19.5372276
  0.629999995      -22.2791386
  0.640999973      -23.6922989
  0.652000010      -24.5173225
  0.662999988      -24.8059769
  0.674000025      -24.1340408
  0.685000002      -23.1796207
  0.695999980      -22.3482151
  0.707000017      -20.8671913
  0.717999995      -18.8382359
  0.728999972      -17.2076283
  0.740000010      -15.6793194
  0.750999987      -13.6760044
  0.762000024      -11.8977060
  0.773000002      -10.6476269
  0.783999979      -9.11564732
  0.795000017      -7.38993979
  0.805999994      -6.31270027
  0.816999972      -5.56929493
  0.828000009      -4.51257896
  0.838999987      -3.57287598
  0.850000024      -3.03924322
  0.861000001      -2.42504358
  0.871999979      -1.79454792
  0.883000016      -1.56966805
  0.893999994      -1.37786353
  0.904999971     -0.904309750
  0.916000009     -0.607036769
  0.926999986     -0.541781545
  0.938000023     -0.294164658
  0.949000001     -0.100378454
  0.959999979     -0.201115385
  0.971000016      -9.08365175E-02
  0.981999993      0.265486717
  0.992999971      0.232899547
   1.00399995      -3.84801887E-02
   1.01499999       2.47295145E-02
   1.02600002      0.148634702
   1.03699994       4.28481307E-03
   1.04799998      -4.79908921E-02
   1.05900002       3.64837348E-02
   1.07000005     -0.118044443
   1.08099997     -0.338248849
   1.09200001     -0.290668398
   1.10300004     -0.195200369
   1.11399996     -0.245032892
   1.12500000     -0.282268465
   1.13600004     -0.280313343
   1.14699996     -0.286965907
   1.15799999     -0.198424026
   1.16900003      -6.30098358E-02
   1.17999995      -5.20348623E-02
   1.19099998      -9.83666554E-02
   1.20200002      -6.66644722E-02
   1.21300006      -5.88652166E-03
   1.22399998       4.27476130E-02
   1.23500001      0.115262054
   1.24600005      0.155473411
   1.25699997       8.65801945E-02
   1.26800001      -7.11793266E-03
   1.27900004       2.42991019E-02
   1.28999996      0.151522517
   1.30100000      0.185432434
   1.31200004       9.20818597E-02
   1.32299995       5.36437444E-02
   1.33399999      0.122263230
   1.34500003      0.160883427
   1.35599995      0.160964012
   1.36699998      0.197205797
   1.37800002      0.182653740
   1.38900006       7.29147196E-02
