 -0.800000012       0.00000000
 -0.788999975       1.68769743E-18
 -0.777999997       1.43706358E-12
 -0.767000020       1.36520959E-11
 -0.755999982       3.06749869E-11
 -0.745000005      -6.49727216E-11
 -0.734000027      -6.38521701E-12
 -0.722999990       5.43705220E-11
 -0.712000012      -2.28492954E-11
 -0.700999975       4.25341637E-11
 -0.689999998      -4.94217271E-11
 -0.679000020      -1.56147539E-10
 -0.667999983      -6.70159414E-11
 -0.657000005       3.02107478E-10
 -0.646000028       3.33439498E-10
 -0.634999990      -5.92352167E-10
 -0.624000013      -2.10173531E-10
 -0.612999976       1.29772093E-09
 -0.601999998       1.64738934E-09
 -0.591000021      -3.09501802E-09
 -0.579999983      -1.93234317E-09
 -0.569000006      -1.57298983E-11
 -0.558000028      -1.54436097E-09
 -0.546999991       9.06756181E-09
 -0.536000013      -1.32583144E-09
 -0.524999976      -1.84129920E-08
 -0.513999999      -2.90986502E-09
 -0.503000021       7.22002635E-09
 -0.492000014      -2.70792877E-09
 -0.481000006       3.04880778E-08
 -0.469999999       3.38134605E-08
 -0.458999991      -5.28826689E-08
 -0.448000014      -7.53442109E-08
 -0.437000006       7.19574729E-08
 -0.425999999       1.38444634E-07
 -0.414999992      -1.28629523E-07
 -0.404000014      -5.59652200E-08
 -0.393000007       5.90977649E-08
 -0.381999999      -2.38328241E-07
 -0.370999992       2.54359605E-07
 -0.360000014       3.89247589E-07
 -0.349000007      -5.40912254E-07
 -0.338000000       1.84733466E-07
 -0.326999992       4.02933438E-07
 -0.316000015      -9.66788321E-07
 -0.305000007      -4.20018154E-08
 -0.294000000       9.64371452E-07
 -0.282999992      -3.97985104E-07
 -0.272000015      -3.85633541E-07
 -0.261000007       1.43235877E-06
 -0.250000000      -5.91916887E-07
 -0.238999993      -1.82598569E-06
 -0.228000000       1.45853585E-06
 -0.216999993       9.42372424E-07
 -0.206000000      -5.17207980E-07
 -0.194999993       1.85778106E-06
 -0.184000000       5.40616270E-07
 -0.172999993      -2.69773591E-06
 -0.162000000      -3.17032163E-06
 -0.150999993      -4.08054262E-07
 -0.140000001       3.78899085E-06
 -0.128999993       7.53903180E-08
 -0.118000001      -3.35165487E-06
 -0.107000001       3.08992685E-06
  -9.60000008E-02   2.87637181E-06
  -8.50000009E-02  -3.29355521E-06
  -7.40000010E-02   8.29144312E-07
  -6.30000010E-02   3.11696385E-06
  -5.20000011E-02  -2.46682043E-06
  -4.10000011E-02  -7.26210260E-07
  -2.99999993E-02   7.64263689E-07
  -1.89999994E-02  -6.44353531E-06
  -8.00000038E-03  -2.28023794E-07
   3.00000003E-03   9.57443081E-06
   1.40000004E-02  -1.91732988E-06
   2.50000004E-02  -4.02605519E-06
   3.59999985E-02   6.37964240E-06
   4.69999984E-02  -2.98860664E-06
   5.79999983E-02  -9.54527241E-06
   6.89999983E-02   5.39173971E-06
   7.99999982E-02   9.66146126E-06
   9.09999982E-02  -4.27410350E-06
  0.101999998      -1.02762169E-05
  0.112999998      -1.08675044E-06
  0.123999998       1.10732835E-05
  0.135000005       7.38892254E-07
  0.145999998      -1.45702779E-05
  0.157000005       9.76620140E-06
  0.167999998       2.41163525E-05
  0.179000005      -1.51646882E-05
  0.189999998      -2.44202729E-05
  0.201000005       1.49072821E-05
  0.211999997       5.61168326E-06
  0.223000005      -1.71946249E-05
  0.233999997       1.27273242E-05
  0.245000005       1.51874874E-05
  0.256000012      -1.80465049E-05
  0.266999990      -7.58053147E-06
  0.277999997       1.32379027E-05
  0.289000005       2.49118830E-06
  0.300000012       1.81844348E-06
  0.310999990       4.63441756E-06
  0.321999997      -9.01385920E-06
  0.333000004      -3.78186314E-06
  0.344000012       3.39664325E-06
  0.354999989      -1.14325858E-05
  0.365999997      -5.74245132E-06
  0.377000004       1.31094894E-05
  0.388000011       6.42745135E-06
  0.398999989       4.18688023E-06
  0.409999996       1.01522064E-05
  0.421000004      -9.90469198E-06
  0.432000011      -2.07288758E-05
  0.442999989      -1.47395679E-06
  0.453999996       6.82375321E-06
  0.465000004       4.28714628E-07
  0.476000011       1.36047163E-07
  0.486999989       5.72844510E-06
  0.497999996       1.62398646E-05
  0.509000003       7.66373068E-06
  0.519999981      -2.03241252E-05
  0.531000018      -1.50428550E-05
  0.541999996       4.43155659E-06
  0.552999973      -8.86026828E-06
  0.564000010       9.98991482E-07
  0.574999988       3.59705082E-05
  0.586000025       5.59912996E-06
  0.597000003      -3.67953980E-05
  0.607999980      -1.61708954E-06
  0.619000018       2.15954115E-05
  0.629999995      -1.49561884E-05
  0.640999973      -1.52224238E-05
  0.652000010       2.07502526E-05
  0.662999988       1.62049255E-05
  0.674000025      -7.96416953E-06
  0.685000002      -7.44840827E-06
  0.695999980       3.95878351E-06
  0.707000017       5.53269683E-06
  0.717999995      -8.46948660E-06
  0.728999972      -1.45274507E-05
  0.740000010       6.29184524E-06
  0.750999987       1.11319832E-05
  0.762000024      -1.07323431E-05
  0.773000002      -1.37178586E-06
  0.783999979       2.04939588E-05
  0.795000017      -2.32516231E-06
  0.805999994      -2.20411839E-05
  0.816999972       1.31019954E-06
  0.828000009       1.30858652E-05
  0.838999987       4.14424761E-07
  0.850000024       9.94201059E-07
  0.861000001       3.27162775E-06
  0.871999979      -6.19437060E-06
  0.883000016      -6.08036726E-06
  0.893999994       7.92869344E-07
  0.904999971      -6.89354636E-07
  0.916000009       9.54700681E-07
  0.926999986       1.01237983E-05
  0.938000023       5.56591749E-06
  0.949000001      -1.29917644E-05
  0.959999979      -9.88599641E-06
  0.971000016       1.37898669E-05
  0.981999993       6.88361342E-06
  0.992999971      -1.85959834E-05
   1.00399995      -2.79964706E-06
   1.01499999       1.84037126E-05
   1.02600002      -5.57519479E-06
   1.03699994      -1.17367808E-05
   1.04799998       1.84455585E-05
   1.05900002       6.61989861E-06
   1.07000005      -2.23683728E-05
   1.08099997       3.48198910E-07
   1.09200001       1.49633488E-05
   1.10300004      -1.20497734E-05
   1.11399996      -6.45700129E-06
   1.12500000       2.14249048E-05
   1.13600004       3.96079213E-06
   1.14699996      -1.96265464E-05
   1.15799999      -2.25941039E-06
   1.16900003       1.12935395E-05
   1.17999995      -3.61364732E-06
   1.19099998      -9.01790099E-06
   1.20200002       7.03513570E-06
   1.21300006       1.05785184E-05
   1.22399998      -8.08403274E-06
   1.23500001      -1.04011478E-05
   1.24600005       9.91089291E-06
   1.25699997       5.52366055E-06
   1.26800001      -1.52193788E-05
   1.27900004      -1.29973989E-06
   1.28999996       1.75523364E-05
   1.30100000       1.57138061E-07
   1.31200004      -1.05989675E-05
   1.32299995       2.57014585E-06
   1.33399999       2.15252726E-06
   1.34500003      -3.31072624E-06
   1.35599995       2.18013179E-06
   1.36699998      -3.60909041E-07
   1.37800002      -5.55764814E-07
   1.38900006       9.32625699E-06
