 -0.959999979       0.00000000
 -0.925000012      -2.07973443E-08
 -0.889999986      -2.60028486E-07
 -0.855000019      -3.92677947E-07
 -0.819999993      -5.60403009E-07
 -0.785000026      -1.85385784E-06
 -0.750000000      -4.07469770E-06
 -0.714999974      -8.79777417E-06
 -0.680000007      -1.76370540E-05
 -0.644999981      -2.66886746E-05
 -0.610000014      -4.27175037E-05
 -0.574999988      -8.38399865E-05
 -0.540000021      -1.41434954E-04
 -0.504999995      -1.94079636E-04
 -0.469999999      -2.57096312E-04
 -0.435000002      -3.38238402E-04
 -0.400000006      -3.95982526E-04
 -0.365000010      -4.27600200E-04
 -0.330000013      -5.17054636E-04
 -0.294999987      -8.08203418E-04
 -0.259999990      -1.64004660E-03
 -0.224999994      -3.75054497E-03
 -0.189999998      -8.29119887E-03
 -0.155000001      -1.67934559E-02
 -0.119999997      -3.11226975E-02
  -8.50000009E-02  -5.30298799E-02
  -5.00000007E-02  -8.32647607E-02
  -1.49999997E-02 -0.120628029
   1.99999996E-02 -0.161065072
   5.49999997E-02 -0.196999103
   9.00000036E-02 -0.217621684
  0.125000000     -0.210543215
  0.159999996     -0.164486602
  0.194999993      -7.25800991E-02
  0.230000004       6.44195750E-02
  0.264999986      0.236208543
  0.300000012      0.423270434
  0.335000008      0.599418759
  0.370000005      0.736018896
  0.405000001      0.807095051
  0.439999998      0.794053137
  0.474999994      0.688918293
  0.509999990      0.495790273
  0.545000017      0.230599537
  0.579999983      -8.07520971E-02
  0.615000010     -0.405481756
  0.649999976     -0.707658231
  0.685000002     -0.952213049
  0.720000029      -1.10897982
  0.754999995      -1.15642285
  0.790000021      -1.08478367
  0.824999988     -0.898441494
  0.860000014     -0.617087722
  0.894999981     -0.274969637
  0.930000007       8.26484412E-02
  0.964999974      0.406159014
   1.00000000      0.650669396
   1.03499997      0.785497129
   1.07000005      0.801313579
   1.10500002      0.712120414
   1.13999999      0.550750434
   1.17499995      0.359153330
   1.21000004      0.176788956
   1.24500000       3.11514698E-02
   1.27999997      -6.64238930E-02
   1.31500006     -0.118874729
   1.35000002     -0.137406394
   1.38499999     -0.134816363
   1.41999996     -0.121127136
   1.45500004     -0.102666184
   1.49000001      -8.36306512E-02
   1.52499998      -6.79575503E-02
   1.55999994      -5.95891774E-02
   1.59500003      -6.07386604E-02
   1.63000000      -6.95429593E-02
