 -0.800000012       0.00000000
 -0.788999975       0.00000000
 -0.777999997       0.00000000
 -0.767000020      -8.98303767E-21
 -0.755999982      -4.80774275E-13
 -0.745000005       2.52401637E-12
 -0.734000027       2.16130456E-12
 -0.722999990      -1.68952265E-11
 -0.712000012       2.56980947E-11
 -0.700999975       3.83300336E-11
 -0.689999998      -1.31030659E-10
 -0.679000020      -1.08740988E-10
 -0.667999983       4.17774676E-10
 -0.657000005      -2.62735278E-10
 -0.646000028      -1.12976788E-10
 -0.634999990       2.76776269E-10
 -0.624000013      -2.54219534E-10
 -0.612999976      -1.56374025E-10
 -0.601999998       1.24691424E-09
 -0.591000021      -8.08434875E-10
 -0.579999983      -1.62930158E-09
 -0.569000006       1.28898570E-09
 -0.558000028       3.62702690E-09
 -0.546999991      -7.86817989E-09
 -0.536000013       2.39930897E-09
 -0.524999976       1.30569218E-08
 -0.513999999      -1.18085026E-08
 -0.503000021      -1.63716152E-08
 -0.492000014       2.38802524E-08
 -0.481000006       1.03904698E-08
 -0.469999999      -3.02587999E-08
 -0.458999991       7.94902277E-09
 -0.448000014       3.28500533E-08
 -0.437000006      -6.42291624E-08
 -0.425999999      -1.78718960E-08
 -0.414999992       1.71650214E-07
 -0.404000014      -8.22067605E-08
 -0.393000007      -2.01469376E-07
 -0.381999999       2.61300869E-07
 -0.370999992      -6.44880949E-09
 -0.360000014      -3.82500502E-07
 -0.349000007       5.26314011E-07
 -0.338000000       2.17870362E-08
 -0.326999992      -9.84663984E-07
 -0.316000015       1.12320981E-06
 -0.305000007       7.06604339E-07
 -0.294000000      -2.66194479E-06
 -0.282999992       4.40943921E-07
 -0.272000015       3.84517989E-06
 -0.261000007      -2.81996699E-06
 -0.250000000      -2.68046119E-06
 -0.238999993       6.59631087E-06
 -0.228000000      -2.87178568E-06
 -0.216999993      -1.06047664E-05
 -0.206000000       1.09894463E-05
 -0.194999993       1.18821945E-05
 -0.184000000      -1.53753117E-05
 -0.172999993      -6.26501469E-06
 -0.162000000       6.91814785E-06
 -0.150999993      -5.13902660E-06
 -0.140000001       1.12701664E-05
 -0.128999993       9.95776190E-06
 -0.118000001      -2.71868503E-05
 -0.107000001       1.43088084E-06
  -9.60000008E-02   3.66056665E-05
  -8.50000009E-02  -7.11291796E-06
  -7.40000010E-02  -3.33402240E-05
  -6.30000010E-02  -1.43619791E-05
  -5.20000011E-02   1.32367459E-05
  -4.10000011E-02   3.27271191E-05
  -2.99999993E-02   1.41715864E-05
  -1.89999994E-02  -9.50337289E-06
  -8.00000038E-03  -4.89912127E-05
   3.00000003E-03   2.65769868E-05
   1.40000004E-02  -1.83775574E-05
   2.50000004E-02  -4.76139667E-06
   3.59999985E-02   2.23554216E-05
   4.69999984E-02   4.98047666E-05
   5.79999983E-02  -4.54503206E-05
   6.89999983E-02  -6.24003733E-05
   7.99999982E-02   5.59604159E-05
   9.09999982E-02   2.13320323E-04
  0.101999998      -2.22384668E-04
  0.112999998      -2.29086465E-04
  0.123999998       2.64476927E-04
  0.135000005       1.24349754E-04
  0.145999998      -3.01853899E-04
  0.157000005       9.75428848E-05
  0.167999998       1.54324691E-04
  0.179000005      -5.26457661E-05
  0.189999998       1.18919525E-05
  0.201000005       2.65154376E-05
  0.211999997      -1.94630164E-04
  0.223000005       3.70274247E-05
  0.233999997       2.80045671E-04
  0.245000005      -2.23297262E-04
  0.256000012      -1.97999965E-04
  0.266999990       3.25684785E-04
  0.277999997      -2.64201488E-04
  0.289000005      -1.19769493E-06
  0.300000012       7.29701773E-04
  0.310999990      -3.70376307E-04
  0.321999997      -1.20393885E-03
  0.333000004       1.17655960E-03
  0.344000012       8.53556441E-04
  0.354999989      -1.84005243E-03
  0.365999997       3.14894423E-05
  0.377000004       1.98999699E-03
  0.388000011      -1.04175578E-03
  0.398999989      -1.30115182E-03
  0.409999996       1.38295896E-03
  0.421000004       9.97138442E-04
  0.432000011      -1.54298032E-03
  0.442999989      -4.83994983E-04
  0.453999996       6.85462670E-04
  0.465000004       3.64420062E-04
  0.476000011       3.63622121E-06
  0.486999989      -6.32526062E-04
  0.497999996       1.56001974E-04
  0.509000003       9.37997887E-04
  0.519999981      -9.13658703E-04
  0.531000018      -9.33549774E-04
  0.541999996       1.83687115E-03
  0.552999973       5.78019361E-04
  0.564000010      -2.57291086E-03
  0.574999988       2.71709927E-04
  0.586000025       2.35320372E-03
  0.597000003      -1.25905732E-03
  0.607999980      -1.29217177E-03
  0.619000018       1.92923041E-03
  0.629999995       1.06919390E-04
  0.640999973      -1.63627055E-03
  0.652000010       3.35707358E-04
  0.662999988       1.14980096E-03
  0.674000025      -1.28309825E-04
  0.685000002      -5.32599457E-04
  0.695999980      -1.19583635E-03
  0.707000017       2.24524920E-04
  0.717999995       2.76857871E-03
  0.728999972      -5.65003080E-04
  0.740000010      -3.17927357E-03
  0.750999987       1.49929908E-03
  0.762000024       2.03795359E-03
  0.773000002      -2.79462035E-03
  0.783999979       1.31558641E-04
  0.795000017       3.46128154E-03
  0.805999994      -1.91744429E-03
  0.816999972      -3.23050236E-03
  0.828000009       2.36363732E-03
  0.838999987       1.63827452E-03
  0.850000024      -1.84119225E-03
  0.861000001       8.42625857E-04
  0.871999979       1.20027922E-03
  0.883000016      -2.24574236E-03
  0.893999994      -7.48601160E-04
  0.904999971       2.03761528E-03
  0.916000009       7.16422335E-04
  0.926999986      -7.84930191E-04
  0.938000023      -9.05848923E-04
  0.949000001      -5.76475984E-04
  0.959999979       1.09895691E-03
  0.971000016       6.13254728E-04
  0.981999993      -1.02551549E-03
  0.992999971       2.89415009E-04
   1.00399995       9.18642618E-04
   1.01499999      -1.58249575E-03
   1.02600002      -2.69838609E-04
   1.03699994       2.37756781E-03
   1.04799998      -7.69991020E-04
   1.05900002      -2.21256516E-03
   1.07000005       1.85167650E-03
   1.08099997       1.03419647E-03
   1.09200001      -2.45621242E-03
   1.10300004       5.33954648E-04
   1.11399996       2.44283630E-03
   1.12500000      -1.72720267E-03
   1.13600004      -2.06348998E-03
   1.14699996       1.78108457E-03
   1.15799999       1.20448356E-03
   1.16900003      -8.25308205E-04
   1.17999995      -6.43922904E-05
   1.19099998       1.35263064E-04
   1.20200002      -2.81639514E-04
   1.21300006       1.79097755E-04
   1.22399998      -4.84635762E-04
   1.23500001      -5.71929850E-04
   1.24600005       1.34664122E-03
   1.25699997       7.35244714E-04
   1.26800001      -1.68438826E-03
   1.27900004      -3.60192265E-04
   1.28999996       1.49701198E-03
   1.30100000      -4.30463522E-04
   1.31200004      -1.10007857E-03
   1.32299995       1.16182643E-03
   1.33399999       7.15974369E-04
   1.34500003      -1.25106052E-03
   1.35599995      -5.24932511E-05
   1.36699998       9.29269823E-04
   1.37800002      -8.30333913E-04
   1.38900006      -7.52332970E-04
