 -0.800000012       0.00000000
 -0.788999975       0.00000000
 -0.777999997       0.00000000
 -0.767000020      -5.43103756E-13
 -0.755999982      -1.35070817E-12
 -0.745000005      -2.97479992E-11
 -0.734000027       1.26382696E-10
 -0.722999990      -2.62793010E-10
 -0.712000012       3.91123939E-10
 -0.700999975       6.36763309E-10
 -0.689999998      -5.51778223E-09
 -0.679000020       7.11152515E-09
 -0.667999983       1.80886417E-08
 -0.657000005      -5.07907281E-08
 -0.646000028      -1.84573405E-08
 -0.634999990       1.73614069E-07
 -0.624000013      -6.40822719E-08
 -0.612999976      -3.87457504E-07
 -0.601999998       3.39363510E-07
 -0.591000021       5.81793756E-07
 -0.579999983      -8.53017752E-07
 -0.569000006      -4.43506622E-07
 -0.558000028       1.42995100E-06
 -0.546999991      -4.87687601E-07
 -0.536000013      -1.65257825E-06
 -0.524999976       2.42359988E-06
 -0.513999999       1.09078064E-06
 -0.503000021      -4.50607513E-06
 -0.492000014       5.86389319E-07
 -0.481000006       4.26307543E-06
 -0.469999999      -4.12344662E-06
 -0.458999991       8.17346574E-07
 -0.448000014       1.04908422E-05
 -0.437000006      -9.47316130E-06
 -0.425999999      -1.71780066E-05
 -0.414999992       1.66676964E-05
 -0.404000014       1.50115902E-05
 -0.393000007      -2.18713176E-05
 -0.381999999       1.30468982E-06
 -0.370999992       2.80027580E-05
 -0.360000014      -2.12145151E-05
 -0.349000007      -2.14008669E-05
 -0.338000000       4.67874270E-05
 -0.326999992       1.38585983E-06
 -0.316000015      -8.70925505E-05
 -0.305000007      -2.77018771E-05
 -0.294000000       1.34505581E-05
 -0.282999992      -9.48083034E-05
 -0.272000015      -1.19896460E-04
 -0.261000007      -5.76100465E-05
 -0.250000000      -1.58065974E-04
 -0.238999993      -2.84308597E-04
 -0.228000000      -2.54519779E-04
 -0.216999993      -3.35414312E-04
 -0.206000000      -5.99204097E-04
 -0.194999993      -7.53664121E-04
 -0.184000000      -9.01486957E-04
 -0.172999993      -1.30800030E-03
 -0.162000000      -1.76734908E-03
 -0.150999993      -2.18347926E-03
 -0.140000001      -2.87558371E-03
 -0.128999993      -3.83265293E-03
 -0.118000001      -4.83253645E-03
 -0.107000001      -6.10870402E-03
  -9.60000008E-02  -7.86335580E-03
  -8.50000009E-02  -9.90136899E-03
  -7.40000010E-02  -1.23002157E-02
  -6.30000010E-02  -1.53577542E-02
  -5.20000011E-02  -1.89868361E-02
  -4.10000011E-02  -2.31554788E-02
  -2.99999993E-02  -2.82037389E-02
  -1.89999994E-02  -3.41784693E-02
  -8.00000038E-03  -4.09137793E-02
   3.00000003E-03  -4.86541577E-02
   1.40000004E-02  -5.75775132E-02
   2.50000004E-02  -6.74440414E-02
   3.59999985E-02  -7.83074498E-02
   4.69999984E-02  -9.04235393E-02
   5.79999983E-02 -0.103510737
   6.89999983E-02 -0.117259771
   7.99999982E-02 -0.131821692
   9.09999982E-02 -0.146982968
  0.101999998     -0.162089750
  0.112999998     -0.176942289
  0.123999998     -0.191380203
  0.135000005     -0.204559192
  0.145999998     -0.215779513
  0.157000005     -0.224848613
  0.167999998     -0.231062904
  0.179000005     -0.233353108
  0.189999998     -0.231291085
  0.201000005     -0.224523649
  0.211999997     -0.212104648
  0.223000005     -0.193447724
  0.233999997     -0.168589607
  0.245000005     -0.137168780
  0.256000012      -9.87198576E-02
  0.266999990      -5.36183231E-02
  0.277999997      -2.39889859E-03
  0.289000005       5.48068359E-02
  0.300000012      0.117321283
  0.310999990      0.183863461
  0.321999997      0.253542423
  0.333000004      0.325438559
  0.344000012      0.397877425
  0.354999989      0.469296277
  0.365999997      0.538634300
  0.377000004      0.604401648
  0.388000011      0.664879501
  0.398999989      0.719024837
  0.409999996      0.765905380
  0.421000004      0.804207087
  0.432000011      0.833120227
  0.442999989      0.852400839
  0.453999996      0.861482501
  0.465000004      0.859870315
  0.476000011      0.847793341
  0.486999989      0.825438261
  0.497999996      0.792608261
  0.509000003      0.749563336
  0.519999981      0.696889877
  0.531000018      0.634655356
  0.541999996      0.562846839
  0.552999973      0.481974632
  0.564000010      0.392384887
  0.574999988      0.293976545
  0.586000025      0.187029600
  0.597000003       7.22371936E-02
  0.607999980      -4.99982536E-02
  0.619000018     -0.179202318
  0.629999995     -0.314171404
  0.640999973     -0.453438699
  0.652000010     -0.595588565
  0.662999988     -0.738622904
  0.674000025     -0.879892051
  0.685000002      -1.01669621
  0.695999980      -1.14614713
  0.707000017      -1.26484096
  0.717999995      -1.36933434
  0.728999972      -1.45641518
  0.740000010      -1.52282858
  0.750999987      -1.56557441
  0.762000024      -1.58235836
  0.773000002      -1.57135201
  0.783999979      -1.53123355
  0.795000017      -1.46178412
  0.805999994      -1.36378706
  0.816999972      -1.23858345
  0.828000009      -1.08843410
  0.838999987     -0.916799068
  0.850000024     -0.727734745
  0.861000001     -0.525609672
  0.871999979     -0.315508127
  0.883000016     -0.102997191
  0.893999994      0.106611609
  0.904999971      0.308254212
  0.916000009      0.496854424
  0.926999986      0.667837918
  0.938000023      0.817628145
  0.949000001      0.943336010
  0.959999979       1.04264843
  0.971000016       1.11434937
  0.981999993       1.15834606
  0.992999971       1.17516613
   1.00399995       1.16604471
   1.01499999       1.13321364
   1.02600002       1.07946777
   1.03699994       1.00777233
   1.04799998      0.921504140
   1.05900002      0.824375868
   1.07000005      0.719921827
   1.08099997      0.611477494
   1.09200001      0.502346873
   1.10300004      0.395474046
   1.11399996      0.293236613
   1.12500000      0.197704315
   1.13600004      0.110604286
   1.14699996       3.30120921E-02
   1.15799999      -3.44730951E-02
   1.16900003      -9.14250761E-02
   1.17999995     -0.137823731
   1.19099998     -0.174188197
   1.20200002     -0.201152384
   1.21300006     -0.219354868
   1.22399998     -0.229795828
   1.23500001     -0.233658180
   1.24600005     -0.231874838
   1.25699997     -0.225396752
   1.26800001     -0.215402558
   1.27900004     -0.202820733
   1.28999996     -0.188298762
   1.30100000     -0.172673076
   1.31200004     -0.156709522
   1.32299995     -0.140728563
   1.33399999     -0.125077292
   1.34500003     -0.110280320
   1.35599995      -9.64831635E-02
   1.36699998      -8.36000890E-02
   1.37800002      -7.18501434E-02
   1.38900006      -6.13993444E-02
