 -0.959999979       0.00000000
 -0.925000012       0.00000000
 -0.889999986       0.00000000
 -0.855000019       1.65277799E-13
 -0.819999993      -2.91666647E-13
 -0.785000026       4.38472262E-12
 -0.750000000       4.70555626E-12
 -0.714999974      -1.81805482E-12
 -0.680000007       1.24813895E-10
 -0.644999981       5.48236144E-11
 -0.610000014      -3.38722217E-10
 -0.574999988       1.93598651E-10
 -0.540000021       5.26808375E-10
 -0.504999995      -1.29038213E-09
 -0.469999999      -1.03681708E-09
 -0.435000002      -1.10182974E-09
 -0.400000006      -2.20222018E-09
 -0.365000010      -1.39749661E-08
 -0.330000013       1.61452682E-08
 -0.294999987      -2.74852567E-08
 -0.259999990       1.07587139E-08
 -0.224999994       2.59057895E-08
 -0.189999998      -2.76006489E-08
 -0.155000001      -8.23241653E-09
 -0.119999997       1.59144840E-08
  -8.50000009E-02  -1.01942632E-08
  -5.00000007E-02   1.33951250E-08
  -1.49999997E-02  -1.36693554E-08
   1.99999996E-02  -1.01503685E-08
   5.49999997E-02   3.63766191E-08
   9.00000036E-02   1.37722269E-08
  0.125000000      -8.21050605E-08
  0.159999996      -5.37370006E-08
  0.194999993       8.03988769E-08
  0.230000004       1.31936027E-08
  0.264999986      -5.52859802E-08
  0.300000012       1.64086611E-08
  0.335000008      -4.61324534E-10
  0.370000005      -3.89149548E-08
  0.405000001      -1.74759585E-08
  0.439999998      -8.52387529E-08
  0.474999994      -2.04731840E-08
  0.509999990       1.10556563E-07
  0.545000017      -8.17866841E-09
  0.579999983      -1.47302870E-07
  0.615000010      -6.08740081E-08
  0.649999976       1.37674778E-08
  0.685000002       2.97906464E-08
  0.720000029       2.03275938E-08
  0.754999995      -6.97581548E-09
  0.790000021       8.55060236E-08
  0.824999988       7.34943484E-08
  0.860000014      -2.23288787E-09
  0.894999981       9.47090371E-08
  0.930000007       2.05746815E-08
  0.964999974      -1.58690355E-07
   1.00000000      -3.97665758E-08
   1.03499997       1.50518630E-07
   1.07000005       9.48293977E-09
   1.10500002      -8.88633167E-08
   1.13999999      -4.28938272E-08
   1.17499995      -4.04102067E-08
   1.21000004      -9.71561387E-10
   1.24500000       1.68037939E-08
   1.27999997      -3.80565872E-08
   1.31500006       4.75758348E-08
   1.35000002       9.70496714E-08
   1.38499999      -3.39109860E-08
   1.41999996      -1.84851476E-08
   1.45500004       8.31159781E-08
   1.49000001      -2.52256669E-08
   1.52499998      -7.35153947E-08
   1.55999994       4.84747069E-08
   1.59500003       1.19723653E-08
   1.63000000      -1.05608024E-07
