 -0.800000012       0.00000000
 -0.788999975       0.00000000
 -0.777999997       0.00000000
 -0.767000020       0.00000000
 -0.755999982       2.37337927E-09
 -0.745000005      -1.61121907E-08
 -0.734000027       7.37000647E-08
 -0.722999990      -2.05184065E-07
 -0.712000012       1.98596226E-07
 -0.700999975       5.40969495E-07
 -0.689999998      -1.90790774E-06
 -0.679000020       1.31481158E-06
 -0.667999983       4.23616530E-06
 -0.657000005      -9.61329988E-06
 -0.646000028      -4.30899973E-07
 -0.634999990       2.46372038E-05
 -0.624000013      -1.98063608E-05
 -0.612999976      -3.44677537E-05
 -0.601999998       5.22407208E-05
 -0.591000021       1.70610911E-05
 -0.579999983      -4.59849762E-05
 -0.569000006       3.78550831E-05
 -0.558000028      -1.19770768E-04
 -0.546999991      -1.01745660E-04
 -0.536000013       6.07279886E-04
 -0.524999976       1.15949697E-04
 -0.513999999      -1.49546214E-03
 -0.503000021      -5.52595120E-05
 -0.492000014       2.56109308E-03
 -0.481000006      -2.95878090E-05
 -0.469999999      -3.10024247E-03
 -0.458999991       1.42324556E-04
 -0.448000014       2.10990966E-03
 -0.437000006      -6.25515997E-04
 -0.425999999       8.72450124E-04
 -0.414999992       2.08543870E-03
 -0.404000014      -4.70290845E-03
 -0.393000007      -4.36610170E-03
 -0.381999999       7.01072486E-03
 -0.370999992       5.74711990E-03
 -0.360000014      -6.65853685E-03
 -0.349000007      -5.13265235E-03
 -0.338000000       3.93124018E-03
 -0.326999992       3.87942628E-03
 -0.316000015       2.75929482E-03
 -0.305000007       8.90971103E-04
 -0.294000000      -5.72662987E-03
 -0.282999992       9.17400524E-04
 -0.272000015       1.41896931E-02
 -0.261000007       2.67054071E-03
 -0.250000000      -1.17146783E-02
 -0.238999993       7.33567635E-03
 -0.228000000       2.53066886E-02
 -0.216999993       1.17432196E-02
 -0.206000000       3.81572987E-03
 -0.194999993       1.62590090E-02
 -0.184000000       2.31149644E-02
 -0.172999993       3.39173824E-02
 -0.162000000       5.68431579E-02
 -0.150999993       5.95481507E-02
 -0.140000001       5.10277785E-02
 -0.128999993       7.64453635E-02
 -0.118000001      0.119334593
 -0.107000001      0.142643258
  -9.60000008E-02  0.165332988
  -8.50000009E-02  0.203124821
  -7.40000010E-02  0.241547704
  -6.30000010E-02  0.292646289
  -5.20000011E-02  0.364691705
  -4.10000011E-02  0.427235693
  -2.99999993E-02  0.483413488
  -1.89999994E-02  0.569609523
  -8.00000038E-03  0.670563102
   3.00000003E-03  0.756619394
   1.40000004E-02  0.847417057
   2.50000004E-02  0.949377835
   3.59999985E-02   1.03962064
   4.69999984E-02   1.13259697
   5.79999983E-02   1.23790228
   6.89999983E-02   1.31083536
   7.99999982E-02   1.34046340
   9.09999982E-02   1.36751831
  0.101999998       1.38274097
  0.112999998       1.34526157
  0.123999998       1.26049161
  0.135000005       1.13310301
  0.145999998      0.940110624
  0.157000005      0.690775931
  0.167999998      0.400777072
  0.179000005       4.30380628E-02
  0.189999998     -0.391439170
  0.201000005     -0.871671319
  0.211999997      -1.39365089
  0.223000005      -1.96745324
  0.233999997      -2.56744552
  0.245000005      -3.17283869
  0.256000012      -3.78847623
  0.266999990      -4.39443970
  0.277999997      -4.95173979
  0.289000005      -5.44861794
  0.300000012      -5.88114119
  0.310999990      -6.22388172
  0.321999997      -6.45706654
  0.333000004      -6.57922983
  0.344000012      -6.57827997
  0.354999989      -6.43505955
  0.365999997      -6.15580893
  0.377000004      -5.75889397
  0.388000011      -5.24237680
  0.398999989      -4.60784245
  0.409999996      -3.88281536
  0.421000004      -3.08360505
  0.432000011      -2.20930958
  0.442999989      -1.28560710
  0.453999996     -0.347028285
  0.465000004      0.602596402
  0.476000011       1.55881512
  0.486999989       2.49983501
  0.497999996       3.42474771
  0.509000003       4.33825731
  0.519999981       5.22172737
  0.531000018       6.07352018
  0.541999996       6.91600609
  0.552999973       7.74674416
  0.564000010       8.55010796
  0.574999988       9.33119678
  0.586000025       10.0893230
  0.597000003       10.8060036
  0.607999980       11.4671431
  0.619000018       12.0547686
  0.629999995       12.5360556
  0.640999973       12.8779268
  0.652000010       13.0488005
  0.662999988       13.0143490
  0.674000025       12.7449236
  0.685000002       12.2110023
  0.695999980       11.3817387
  0.707000017       10.2412739
  0.717999995       8.78930855
  0.728999972       7.03508043
  0.740000010       5.00307560
  0.750999987       2.72953463
  0.762000024      0.257793635
  0.773000002      -2.35235262
  0.783999979      -5.02709150
  0.795000017      -7.68757963
  0.805999994      -10.2471657
  0.816999972      -12.6207523
  0.828000009      -14.7355413
  0.838999987      -16.5208035
  0.850000024      -17.9080105
  0.861000001      -18.8495312
  0.871999979      -19.3154144
  0.883000016      -19.2876453
  0.893999994      -18.7725868
  0.904999971      -17.7969589
  0.916000009      -16.3975315
  0.926999986      -14.6231480
  0.938000023      -12.5357618
  0.949000001      -10.2153196
  0.959999979      -7.75688410
  0.971000016      -5.24092245
  0.981999993      -2.73229337
  0.992999971     -0.310510755
   1.00399995       1.94629896
   1.01499999       3.98699260
   1.02600002       5.76312590
   1.03699994       7.22919083
   1.04799998       8.37702179
   1.05900002       9.21097660
   1.07000005       9.72145557
   1.08099997       9.92212105
   1.09200001       9.85148144
   1.10300004       9.53533173
   1.11399996       9.00698376
   1.12500000       8.32039070
   1.13600004       7.51060820
   1.14699996       6.60423183
   1.15799999       5.65393019
   1.16900003       4.70380926
   1.17999995       3.77101302
   1.19099998       2.88309097
   1.20200002       2.06809807
   1.21300006       1.32590890
   1.22399998      0.661696792
   1.23500001       9.90466326E-02
   1.24600005     -0.360044867
   1.25699997     -0.731529415
   1.26800001      -1.01805902
   1.27900004      -1.22373438
   1.28999996      -1.36390507
   1.30100000      -1.44465590
   1.31200004      -1.47028220
   1.32299995      -1.45806468
   1.33399999      -1.41691041
   1.34500003      -1.34423935
   1.35599995      -1.25204384
   1.36699998      -1.15599740
   1.37800002      -1.05261660
   1.38900006     -0.941806018
