 -0.800000012       0.00000000
 -0.788999975       0.00000000
 -0.777999997       0.00000000
 -0.767000020       0.00000000
 -0.755999982       0.00000000
 -0.745000005       2.87178891E-13
 -0.734000027      -1.37521721E-12
 -0.722999990       5.88009372E-12
 -0.712000012      -1.16918697E-11
 -0.700999975      -5.23367634E-12
 -0.689999998       6.66818198E-11
 -0.679000020      -9.22595472E-11
 -0.667999983      -9.21086610E-11
 -0.657000005       4.20618262E-10
 -0.646000028      -2.29863989E-10
 -0.634999990      -9.32485644E-10
 -0.624000013       1.34599409E-09
 -0.612999976       1.22790633E-09
 -0.601999998      -3.06078030E-09
 -0.591000021      -1.02834241E-09
 -0.579999983       3.06849257E-09
 -0.569000006       1.60114144E-09
 -0.558000028       4.71424588E-09
 -0.546999991      -6.66489397E-09
 -0.536000013      -3.03552419E-08
 -0.524999976       1.94352356E-08
 -0.513999999       8.32555926E-08
 -0.503000021      -3.38748656E-08
 -0.492000014      -1.57691716E-07
 -0.481000006       2.83835266E-08
 -0.469999999       2.10878653E-07
 -0.458999991       1.82446787E-08
 -0.448000014      -1.57167918E-07
 -0.437000006      -7.72819320E-08
 -0.425999999      -7.30838465E-08
 -0.414999992       3.66814525E-08
 -0.404000014       3.98786341E-07
 -0.393000007       1.91838026E-07
 -0.381999999      -5.43411829E-07
 -0.370999992      -4.30361695E-07
 -0.360000014       3.78095734E-07
 -0.349000007       3.80866112E-07
 -0.338000000      -2.37422896E-07
 -0.326999992      -3.80024090E-07
 -0.316000015      -5.32051381E-08
 -0.305000007       6.07474419E-07
 -0.294000000       1.37595248E-06
 -0.282999992       1.45152978E-06
 -0.272000015       1.63812422E-06
 -0.261000007       3.54164513E-06
 -0.250000000       5.76827597E-06
 -0.238999993       6.57745477E-06
 -0.228000000       8.27431359E-06
 -0.216999993       1.30332610E-05
 -0.206000000       1.92130083E-05
 -0.194999993       2.58545078E-05
 -0.184000000       3.44635264E-05
 -0.172999993       4.58693139E-05
 -0.162000000       6.13789671E-05
 -0.150999993       8.37670232E-05
 -0.140000001       1.13360387E-04
 -0.128999993       1.49127212E-04
 -0.118000001       1.94144159E-04
 -0.107000001       2.53602135E-04
  -9.60000008E-02   3.30319745E-04
  -8.50000009E-02   4.27040679E-04
  -7.40000010E-02   5.48339507E-04
  -6.30000010E-02   6.98867079E-04
  -5.20000011E-02   8.84805864E-04
  -4.10000011E-02   1.11487263E-03
  -2.99999993E-02   1.39663380E-03
  -1.89999994E-02   1.73688482E-03
  -8.00000038E-03   2.14605825E-03
   3.00000003E-03   2.63637607E-03
   1.40000004E-02   3.21824732E-03
   2.50000004E-02   3.90264881E-03
   3.59999985E-02   4.70191892E-03
   4.69999984E-02   5.62699093E-03
   5.79999983E-02   6.68911310E-03
   6.89999983E-02   7.90101476E-03
   7.99999982E-02   9.27152298E-03
   9.09999982E-02   1.08042359E-02
  0.101999998       1.25024207E-02
  0.112999998       1.43679082E-02
  0.123999998       1.63961723E-02
  0.135000005       1.85769591E-02
  0.145999998       2.08948515E-02
  0.157000005       2.33264901E-02
  0.167999998       2.58417167E-02
  0.179000005       2.84054466E-02
  0.189999998       3.09743825E-02
  0.201000005       3.34959440E-02
  0.211999997       3.59120369E-02
  0.223000005       3.81595083E-02
  0.233999997       4.01689038E-02
  0.245000005       4.18676212E-02
  0.256000012       4.31824513E-02
  0.266999990       4.40389030E-02
  0.277999997       4.43636067E-02
  0.289000005       4.40891087E-02
  0.300000012       4.31553461E-02
  0.310999990       4.15100008E-02
  0.321999997       3.91115509E-02
  0.333000004       3.59317660E-02
  0.344000012       3.19559239E-02
  0.354999989       2.71841250E-02
  0.365999997       2.16336567E-02
  0.377000004       1.53383128E-02
  0.388000011       8.34615994E-03
  0.398999989       7.19699659E-04
  0.409999996      -7.46429386E-03
  0.421000004      -1.61181018E-02
  0.432000011      -2.51450501E-02
  0.442999989      -3.44393738E-02
  0.453999996      -4.38892581E-02
  0.465000004      -5.33810705E-02
  0.476000011      -6.27999231E-02
  0.486999989      -7.20302090E-02
  0.497999996      -8.09580833E-02
  0.509000003      -8.94715413E-02
  0.519999981      -9.74600017E-02
  0.531000018     -0.104816630
  0.541999996     -0.111438431
  0.552999973     -0.117223412
  0.564000010     -0.122070976
  0.574999988     -0.125883967
  0.586000025     -0.128567919
  0.597000003     -0.130031049
  0.607999980     -0.130186617
  0.619000018     -0.128954723
  0.629999995     -0.126264274
  0.640999973     -0.122056916
  0.652000010     -0.116291180
  0.662999988     -0.108946525
  0.674000025     -0.100027248
  0.685000002      -8.95659178E-02
  0.695999980      -7.76269585E-02
  0.707000017      -6.43107668E-02
  0.717999995      -4.97554876E-02
  0.728999972      -3.41367647E-02
  0.740000010      -1.76666845E-02
  0.750999987      -5.91130345E-04
  0.762000024       1.68146584E-02
  0.773000002       3.42515483E-02
  0.783999979       5.14037423E-02
  0.795000017       6.79477006E-02
  0.805999994       8.35615918E-02
  0.816999972       9.79356244E-02
  0.828000009      0.110782430
  0.838999987      0.121846095
  0.850000024      0.130910784
  0.861000001      0.137808800
  0.871999979      0.142426044
  0.883000016      0.144705966
  0.893999994      0.144651964
  0.904999971      0.142326549
  0.916000009      0.137847811
  0.926999986      0.131384969
  0.938000023      0.123152755
  0.949000001      0.113403700
  0.959999979      0.102418460
  0.971000016       9.04945806E-02
  0.981999993       7.79366568E-02
  0.992999971       6.50482848E-02
   1.00399995       5.21223769E-02
   1.01499999       3.94318588E-02
   1.02600002       2.72236373E-02
   1.03699994       1.57127213E-02
   1.04799998       5.07659977E-03
   1.05900002      -4.54580784E-03
   1.07000005      -1.30536603E-02
   1.08099997      -2.03852784E-02
   1.09200001      -2.65163742E-02
   1.10300004      -3.14554349E-02
   1.11399996      -3.52407210E-02
   1.12500000      -3.79361771E-02
   1.13600004      -3.96248177E-02
   1.14699996      -4.04046066E-02
   1.15799999      -4.03853171E-02
   1.16900003      -3.96819524E-02
   1.17999995      -3.84094082E-02
   1.19099998      -3.66805866E-02
   1.20200002      -3.46028991E-02
   1.21300006      -3.22748832E-02
   1.22399998      -2.97864266E-02
   1.23500001      -2.72180568E-02
   1.24600005      -2.46377736E-02
   1.25699997      -2.21009459E-02
   1.26800001      -1.96525306E-02
   1.27900004      -1.73273366E-02
   1.28999996      -1.51502881E-02
   1.30100000      -1.31382970E-02
   1.31200004      -1.13010909E-02
   1.32299995      -9.64174047E-03
   1.33399999      -8.15876480E-03
   1.34500003      -6.84723631E-03
   1.35599995      -5.69843827E-03
   1.36699998      -4.70119948E-03
   1.37800002      -3.84379015E-03
   1.38900006      -3.11367749E-03
