 -0.800000012       0.00000000
 -0.788999975       0.00000000
 -0.777999997       0.00000000
 -0.767000020       0.00000000
 -0.755999982      -8.47755754E-11
 -0.745000005      -2.04984718E-09
 -0.734000027       9.73627934E-09
 -0.722999990      -8.74702888E-09
 -0.712000012      -4.69036578E-08
 -0.700999975       1.06021353E-07
 -0.689999998       7.46589848E-08
 -0.679000020      -4.02235599E-07
 -0.667999983       7.83424952E-08
 -0.657000005       8.66441098E-07
 -0.646000028      -6.53908671E-07
 -0.634999990      -1.07827077E-06
 -0.624000013       1.62551964E-06
 -0.612999976       2.42862797E-07
 -0.601999998      -2.29269676E-06
 -0.591000021       2.13341627E-06
 -0.579999983       1.21897347E-06
 -0.569000006      -5.11218241E-06
 -0.558000028       3.03429670E-06
 -0.546999991       5.67564393E-06
 -0.536000013      -1.04746123E-05
 -0.524999976      -9.29376398E-09
 -0.513999999       1.77417733E-05
 -0.503000021      -1.37568741E-05
 -0.492000014      -1.73759654E-05
 -0.481000006       3.33080498E-05
 -0.469999999       6.64709319E-07
 -0.458999991      -5.23471354E-05
 -0.448000014       3.43568427E-05
 -0.437000006       6.05288224E-05
 -0.425999999      -7.73351712E-05
 -0.414999992      -4.48224819E-05
 -0.404000014       1.10026551E-04
 -0.393000007      -1.95875418E-06
 -0.381999999      -1.16032337E-04
 -0.370999992       6.83521648E-05
 -0.360000014       8.22137954E-05
 -0.349000007      -1.31924127E-04
 -0.338000000      -1.13241558E-05
 -0.326999992       1.69038423E-04
 -0.316000015      -6.07321163E-05
 -0.305000007      -1.21129931E-04
 -0.294000000       1.79842595E-04
 -0.282999992       1.16367264E-04
 -0.272000015      -1.29095351E-04
 -0.261000007       7.98302935E-05
 -0.250000000       2.46322481E-04
 -0.238999993       6.35035904E-05
 -0.228000000       1.62497672E-04
 -0.216999993       4.11059009E-04
 -0.206000000       3.06626462E-04
 -0.194999993       3.77745804E-04
 -0.184000000       8.09656805E-04
 -0.172999993       9.37459292E-04
 -0.162000000       1.02386868E-03
 -0.150999993       1.61238795E-03
 -0.140000001       2.12018541E-03
 -0.128999993       2.45519169E-03
 -0.118000001       3.40124709E-03
 -0.107000001       4.59157396E-03
  -9.60000008E-02   5.42217912E-03
  -8.50000009E-02   6.78129960E-03
  -7.40000010E-02   9.04297829E-03
  -6.30000010E-02   1.12179192E-02
  -5.20000011E-02   1.34673556E-02
  -4.10000011E-02   1.68237276E-02
  -2.99999993E-02   2.08816864E-02
  -1.89999994E-02   2.50478294E-02
  -8.00000038E-03   3.00977528E-02
   3.00000003E-03   3.64283547E-02
   1.40000004E-02   4.34186384E-02
   2.50000004E-02   5.10766506E-02
   3.59999985E-02   5.99742979E-02
   4.69999984E-02   7.01295212E-02
   5.79999983E-02   8.12573507E-02
   6.89999983E-02   9.31980610E-02
   7.99999982E-02  0.105957463
   9.09999982E-02  0.119708627
  0.101999998      0.134148285
  0.112999998      0.148517773
  0.123999998      0.162773624
  0.135000005      0.177016407
  0.145999998      0.190088764
  0.157000005      0.200925514
  0.167999998      0.209710762
  0.179000005      0.215830117
  0.189999998      0.217329606
  0.201000005      0.213295206
  0.211999997      0.203657061
  0.223000005      0.186941892
  0.233999997      0.161089033
  0.245000005      0.125340074
  0.256000012       7.92780295E-02
  0.266999990       2.14816350E-02
  0.277999997      -4.96193655E-02
  0.289000005     -0.134653091
  0.300000012     -0.233691975
  0.310999990     -0.347137660
  0.321999997     -0.475556433
  0.333000004     -0.618533790
  0.344000012     -0.774512172
  0.354999989     -0.942046642
  0.365999997      -1.11987364
  0.377000004      -1.30533385
  0.388000011      -1.49430239
  0.398999989      -1.68282461
  0.409999996      -1.86691976
  0.421000004      -2.04081678
  0.432000011      -2.19756484
  0.442999989      -2.33110666
  0.453999996      -2.43535542
  0.465000004      -2.50216985
  0.476000011      -2.52326250
  0.486999989      -2.49272585
  0.497999996      -2.40490484
  0.509000003      -2.25262451
  0.519999981      -2.03056479
  0.531000018      -1.73717940
  0.541999996      -1.37170327
  0.552999973     -0.933578968
  0.564000010     -0.425815135
  0.574999988      0.144644186
  0.586000025      0.769278884
  0.597000003       1.43774319
  0.607999980       2.13639998
  0.619000018       2.84878397
  0.629999995       3.55673981
  0.640999973       4.24108171
  0.652000010       4.88189983
  0.662999988       5.45856190
  0.674000025       5.95071650
  0.685000002       6.34012651
  0.695999980       6.61079788
  0.707000017       6.74863148
  0.717999995       6.74342966
  0.728999972       6.59029388
  0.740000010       6.28801298
  0.750999987       5.83895636
  0.762000024       5.25164890
  0.773000002       4.54032564
  0.783999979       3.72175431
  0.795000017       2.81554651
  0.805999994       1.84612989
  0.816999972      0.840664864
  0.828000009     -0.174203023
  0.838999987      -1.17205954
  0.850000024      -2.12613058
  0.861000001      -3.01136327
  0.871999979      -3.80612731
  0.883000016      -4.49230623
  0.893999994      -5.05564737
  0.904999971      -5.48623180
  0.916000009      -5.77845764
  0.926999986      -5.93148851
  0.938000023      -5.94951439
  0.949000001      -5.84054565
  0.959999979      -5.61534595
  0.971000016      -5.28770638
  0.981999993      -4.87426949
  0.992999971      -4.39299917
   1.00399995      -3.86185598
   1.01499999      -3.29870701
   1.02600002      -2.72136903
   1.03699994      -2.14652467
   1.04799998      -1.58846354
   1.05900002      -1.05932987
   1.07000005     -0.569660902
   1.08099997     -0.127464101
   1.09200001      0.262313604
   1.10300004      0.596533954
   1.11399996      0.873451352
   1.12500000       1.09389865
   1.13600004       1.26096904
   1.14699996       1.37821209
   1.15799999       1.44950557
   1.16900003       1.48024702
   1.17999995       1.47692037
   1.19099998       1.44527721
   1.20200002       1.39001632
   1.21300006       1.31633937
   1.22399998       1.23032844
   1.23500001       1.13684952
   1.24600005       1.03853917
   1.25699997      0.938061357
   1.26800001      0.839424193
   1.27900004      0.745447218
   1.28999996      0.656187832
   1.30100000      0.571779668
   1.31200004      0.494349003
   1.32299995      0.425134510
   1.33399999      0.362635165
   1.34500003      0.305844903
   1.35599995      0.256096840
   1.36699998      0.213622987
   1.37800002      0.176133260
   1.38900006      0.142640203
