 -0.959999979       0.00000000
 -0.925000012       0.00000000
 -0.889999986       1.45580625E-09
 -0.855000019       1.82019040E-08
 -0.819999993       2.89432904E-08
 -0.785000026       5.74302881E-08
 -0.750000000       1.58712851E-07
 -0.714999974       3.42658183E-07
 -0.680000007       7.74557691E-07
 -0.644999981       1.57725151E-06
 -0.610000014       2.64275809E-06
 -0.574999988       4.56748148E-06
 -0.540000021       8.51155801E-06
 -0.504999995       1.44679007E-05
 -0.469999999       2.20971469E-05
 -0.435000002       3.24647699E-05
 -0.400000006       4.57736351E-05
 -0.365000010       6.01832035E-05
 -0.330000013       7.57060552E-05
 -0.294999987       9.63776620E-05
 -0.259999990       1.32279980E-04
 -0.224999994       2.11181075E-04
 -0.189999998       3.94820061E-04
 -0.155000001       7.91563885E-04
 -0.119999997       1.57036015E-03
  -8.50000009E-02   2.97015929E-03
  -5.00000007E-02   5.28245745E-03
  -1.49999997E-02   8.79869331E-03
   1.99999996E-02   1.37264282E-02
   5.49999997E-02   2.00732630E-02
   9.00000036E-02   2.75163632E-02
  0.125000000       3.53067592E-02
  0.159999996       4.22544032E-02
  0.194999993       4.68208604E-02
  0.230000004       4.73349951E-02
  0.264999986       4.23114523E-02
  0.300000012       3.08003873E-02
  0.335000008       1.26825189E-02
  0.370000005      -1.11589711E-02
  0.405000001      -3.88388634E-02
  0.439999998      -6.76556453E-02
  0.474999994      -9.44226310E-02
  0.509999990     -0.115879953
  0.545000017     -0.129127875
  0.579999983     -0.132021889
  0.615000010     -0.123475254
  0.649999976     -0.103638090
  0.685000002      -7.39390478E-02
  0.720000029      -3.69831510E-02
  0.754999995       3.68956896E-03
  0.790000021       4.39665541E-02
  0.824999988       7.96243995E-02
  0.860000014      0.106857337
  0.894999981      0.122820519
  0.930000007      0.126105189
  0.964999974      0.117035009
   1.00000000       9.76740122E-02
   1.03499997       7.14882016E-02
   1.07000005       4.26891595E-02
   1.10500002       1.53961619E-02
   1.13999999      -7.15918792E-03
   1.17499995      -2.31562890E-02
   1.21000004      -3.22999619E-02
   1.24500000      -3.55315134E-02
   1.27999997      -3.44804451E-02
   1.31500006      -3.08817718E-02
   1.35000002      -2.61592902E-02
   1.38499999      -2.12634038E-02
   1.41999996      -1.67221054E-02
   1.45500004      -1.27844205E-02
   1.49000001      -9.53549985E-03
   1.52499998      -6.93038199E-03
   1.55999994      -4.77847876E-03
   1.59500003      -2.75904383E-03
   1.63000000      -5.26757678E-04
