 -0.800000012       0.00000000
 -0.788999975       0.00000000
 -0.777999997       0.00000000
 -0.767000020      -4.11552126E-24
 -0.755999982      -1.76532823E-16
 -0.745000005       5.01099991E-15
 -0.734000027       1.08581425E-14
 -0.722999990      -7.76377440E-15
 -0.712000012       7.75918348E-15
 -0.700999975      -6.65377367E-13
 -0.689999998       2.03716948E-12
 -0.679000020       1.30874120E-12
 -0.667999983      -1.69410441E-11
 -0.657000005       2.74853699E-11
 -0.646000028       2.50291333E-11
 -0.634999990      -1.38843950E-10
 -0.624000013       9.31812474E-11
 -0.612999976       2.99562486E-10
 -0.601999998      -5.50075818E-10
 -0.591000021      -1.36814796E-10
 -0.579999983       1.23451938E-09
 -0.569000006      -8.09748990E-10
 -0.558000028      -1.66644321E-09
 -0.546999991       2.91829805E-09
 -0.536000013       1.08606113E-09
 -0.524999976      -6.36745101E-09
 -0.513999999       1.36743461E-09
 -0.503000021       9.93483695E-09
 -0.492000014      -3.57938168E-09
 -0.481000006      -1.39041703E-08
 -0.469999999      -1.70635395E-10
 -0.458999991       2.53099586E-08
 -0.448000014       1.32872540E-08
 -0.437000006      -5.79190704E-08
 -0.425999999      -2.67287330E-08
 -0.414999992       1.22043474E-07
 -0.404000014       1.53023603E-08
 -0.393000007      -2.02577695E-07
 -0.381999999       3.26744640E-08
 -0.370999992       2.61030834E-07
 -0.360000014      -8.74465371E-08
 -0.349000007      -2.41852632E-07
 -0.338000000       3.04857188E-08
 -0.326999992       1.82925660E-07
 -0.316000015       2.78910591E-07
 -0.305000007      -3.22174742E-07
 -0.294000000      -8.46385035E-07
 -0.282999992       1.02065292E-06
 -0.272000015       1.38486450E-06
 -0.261000007      -2.30096066E-06
 -0.250000000      -1.48690083E-06
 -0.238999993       3.40210499E-06
 -0.228000000       1.02280706E-06
 -0.216999993      -2.97710926E-06
 -0.206000000      -6.32931801E-07
 -0.194999993       3.59974479E-07
 -0.184000000       1.93617029E-06
 -0.172999993       3.80304050E-06
 -0.162000000      -6.45986711E-06
 -0.150999993      -8.34861203E-06
 -0.140000001       1.29456130E-05
 -0.128999993       1.20298882E-05
 -0.118000001      -1.65030997E-05
 -0.107000001      -1.41863839E-05
  -9.60000008E-02   1.40156708E-05
  -8.50000009E-02   1.57860068E-05
  -7.40000010E-02  -6.38843903E-06
  -6.30000010E-02  -2.13345320E-05
  -5.20000011E-02  -1.58324860E-06
  -4.10000011E-02   3.19781902E-05
  -2.99999993E-02   6.57679084E-06
  -1.89999994E-02  -3.89134002E-05
  -8.00000038E-03  -5.40956171E-06
   3.00000003E-03   2.57546162E-05
   1.40000004E-02  -1.44006608E-05
   2.50000004E-02   4.74859235E-06
   3.59999985E-02   5.28042583E-05
   4.69999984E-02  -1.82970216E-05
   5.79999983E-02  -9.53171111E-05
   6.89999983E-02   1.41789369E-05
   7.99999982E-02   1.03895101E-04
   9.09999982E-02   2.22540366E-05
  0.101999998      -1.06167448E-04
  0.112999998      -6.57314158E-05
  0.123999998       1.11534464E-04
  0.135000005       1.03016901E-04
  0.145999998      -1.01396596E-04
  0.157000005      -9.58704477E-05
  0.167999998       6.66053602E-05
  0.179000005       4.52765607E-06
  0.189999998      -2.00227951E-05
  0.201000005       5.46937554E-05
  0.211999997       1.77720085E-05
  0.223000005      -1.02604259E-04
  0.233999997       5.30758807E-05
  0.245000005       6.34541284E-05
  0.256000012      -6.64256731E-05
  0.266999990       4.47831462E-06
  0.277999997       1.27153808E-05
  0.289000005      -8.73229001E-05
  0.300000012       1.28294967E-04
  0.310999990       1.07415479E-04
  0.321999997      -2.33815619E-04
  0.333000004      -7.64389461E-06
  0.344000012       1.83263051E-04
  0.354999989      -2.47313961E-04
  0.365999997       7.00881492E-06
  0.377000004       4.17796924E-04
  0.388000011      -1.27968466E-04
  0.398999989      -3.41226201E-04
  0.409999996       1.54078836E-04
  0.421000004       1.21614547E-04
  0.432000011      -2.50236713E-04
  0.442999989       1.15579896E-05
  0.453999996       3.95691313E-04
  0.465000004       1.53014800E-04
  0.476000011      -5.07197401E-04
  0.486999989      -2.60301138E-04
  0.497999996       1.15452705E-04
  0.509000003       5.44691866E-04
  0.519999981       1.92978099E-04
  0.531000018      -5.64251211E-04
  0.541999996      -2.53232167E-04
  0.552999973       4.87826983E-05
  0.564000010       3.25612375E-04
  0.574999988       3.62967869E-04
  0.586000025      -1.86116318E-04
  0.597000003      -1.16212061E-04
  0.607999980       8.78304709E-05
  0.619000018      -8.95274454E-04
  0.629999995       7.24660640E-05
  0.640999973       1.18478923E-03
  0.652000010      -5.29733952E-05
  0.662999988      -8.99017090E-04
  0.674000025       4.67887789E-04
  0.685000002       4.65612859E-04
  0.695999980      -1.08007400E-03
  0.707000017      -2.49267294E-04
  0.717999995       1.11387484E-03
  0.728999972       6.88254600E-04
  0.740000010      -5.67278592E-04
  0.750999987      -1.46874390E-03
  0.762000024       6.70235720E-04
  0.773000002       1.39935606E-03
  0.783999979      -1.36987760E-03
  0.795000017      -4.93528729E-04
  0.805999994       1.80427870E-03
  0.816999972      -1.70853236E-04
  0.828000009      -2.36181053E-03
  0.838999987       1.14604330E-03
  0.850000024       2.17585452E-03
  0.861000001      -1.92100625E-03
  0.871999979      -1.05886848E-03
  0.883000016       1.70713093E-03
  0.893999994      -5.63356793E-04
  0.904999971      -7.78332178E-04
  0.916000009       1.95045013E-03
  0.926999986       1.06818123E-04
  0.938000023      -1.88819971E-03
  0.949000001      -1.89855549E-04
  0.959999979       5.80369029E-04
  0.971000016       8.17677392E-06
  0.981999993       5.63012552E-04
  0.992999971      -1.74087283E-04
   1.00399995      -6.35569333E-04
   1.01499999       1.09970372E-03
   1.02600002       4.42260964E-04
   1.03699994      -1.90703105E-03
   1.04799998       3.99969576E-04
   1.05900002       1.99179887E-03
   1.07000005      -1.62573205E-03
   1.08099997      -1.81080529E-03
   1.09200001       2.85898778E-03
   1.10300004       1.28526753E-03
   1.11399996      -3.77388042E-03
   1.12500000      -2.42907830E-04
   1.13600004       3.68252979E-03
   1.14699996      -1.13623426E-03
   1.15799999      -2.90250755E-03
   1.16900003       2.67739850E-03
   1.17999995       1.96751882E-03
   1.19099998      -3.59555427E-03
   1.20200002      -8.85040557E-04
   1.21300006       3.29729030E-03
   1.22399998      -4.82049771E-04
   1.23500001      -2.33387295E-03
   1.24600005       1.53790100E-03
   1.25699997       1.50857167E-03
   1.26800001      -1.57075771E-03
   1.27900004      -1.23092439E-03
   1.28999996       8.52235418E-04
   1.30100000       1.04594906E-03
   1.31200004      -1.11026202E-04
   1.32299995      -6.92062138E-04
   1.33399999       3.60665908E-05
   1.34500003       5.44061186E-04
   1.35599995      -5.15620399E-04
   1.36699998      -3.64631414E-04
   1.37800002       1.01352343E-03
   1.38900006      -9.29517410E-05
