 -0.959999979       0.00000000
 -0.925000012      -1.56158035E-06
 -0.889999986      -2.14565280E-05
 -0.855000019      -6.01385800E-05
 -0.819999993      -9.53960334E-05
 -0.785000026      -1.86017554E-04
 -0.750000000      -4.56499867E-04
 -0.714999974      -9.73187038E-04
 -0.680000007      -1.83675729E-03
 -0.644999981      -3.34955240E-03
 -0.610000014      -5.91887673E-03
 -0.574999988      -9.88446828E-03
 -0.540000021      -1.54537829E-02
 -0.504999995      -2.25212257E-02
 -0.469999999      -3.03710084E-02
 -0.435000002      -3.74985598E-02
 -0.400000006      -4.15614247E-02
 -0.365000010      -3.96541022E-02
 -0.330000013      -2.94462889E-02
 -0.294999987      -1.12245539E-02
 -0.259999990       9.85145755E-03
 -0.224999994       2.21608728E-02
 -0.189999998       7.86488689E-03
 -0.155000001      -5.35253435E-02
 -0.119999997     -0.177519023
  -8.50000009E-02 -0.364041567
  -5.00000007E-02 -0.586883187
  -1.49999997E-02 -0.787944496
   1.99999996E-02 -0.881736398
   5.49999997E-02 -0.773629844
   9.00000036E-02 -0.390536785
  0.125000000      0.283290416
  0.159999996       1.17789185
  0.194999993       2.13108945
  0.230000004       2.91380835
  0.264999986       3.28645277
  0.300000012       3.07249331
  0.335000008       2.22517061
  0.370000005      0.860856771
  0.405000001     -0.758245409
  0.439999998      -2.29084682
  0.474999994      -3.41194105
  0.509999990      -3.90419436
  0.545000017      -3.71375799
  0.579999983      -2.95281386
  0.615000010      -1.85202086
  0.649999976     -0.683681488
  0.685000002      0.316323817
  0.720000029       1.00351775
  0.754999995       1.34356213
  0.790000021       1.39519191
  0.824999988       1.26865327
  0.860000014       1.07648683
  0.894999981      0.894043505
  0.930000007      0.742857814
  0.964999974      0.600975513
   1.00000000      0.433011949
   1.03499997      0.223791435
   1.07000005      -2.70890375E-03
   1.10500002     -0.190290168
   1.13999999     -0.280321717
   1.17499995     -0.247665912
   1.21000004     -0.121279933
   1.24500000       2.43210346E-02
   1.27999997      0.104274824
   1.31500006       6.69131055E-02
   1.35000002      -7.85030201E-02
   1.38499999     -0.265652925
   1.41999996     -0.404783130
   1.45500004     -0.427771717
   1.49000001     -0.320533156
   1.52499998     -0.126577273
   1.55999994       7.79247805E-02
   1.59500003      0.222017571
   1.63000000      0.270079583
