 -0.959999979       0.00000000
 -0.925000012      -5.13189789E-22
 -0.889999986       1.61969251E-14
 -0.855000019       6.80445771E-13
 -0.819999993      -9.51541905E-13
 -0.785000026      -2.16063127E-12
 -0.750000000      -1.09023381E-12
 -0.714999974       1.99416351E-11
 -0.680000007      -1.11205732E-11
 -0.644999981       6.18430238E-11
 -0.610000014       3.59922266E-11
 -0.574999988      -6.44973450E-11
 -0.540000021       3.20690280E-10
 -0.504999995      -4.35475767E-10
 -0.469999999       8.07379885E-10
 -0.435000002      -2.66372058E-09
 -0.400000006      -2.54138066E-09
 -0.365000010       8.62590266E-09
 -0.330000013       4.15233536E-09
 -0.294999987      -1.86556353E-08
 -0.259999990      -1.91283807E-08
 -0.224999994       3.45327145E-08
 -0.189999998       5.20896570E-08
 -0.155000001      -5.54875896E-08
 -0.119999997      -2.75737460E-08
  -8.50000009E-02   6.00899810E-08
  -5.00000007E-02  -1.04762393E-07
  -1.49999997E-02  -1.29539814E-07
   1.99999996E-02   1.65938701E-07
   5.49999997E-02   2.36523249E-07
   9.00000036E-02   1.75919066E-08
  0.125000000      -1.72941085E-07
  0.159999996      -3.02878817E-07
  0.194999993      -1.14428978E-07
  0.230000004       4.84771647E-07
  0.264999986       3.12970172E-07
  0.300000012      -6.90832167E-07
  0.335000008      -2.72172713E-07
  0.370000005       1.04983508E-06
  0.405000001       2.32320247E-07
  0.439999998      -1.25678980E-06
  0.474999994      -3.04773721E-07
  0.509999990       8.52882238E-07
  0.545000017       1.01168425E-07
  0.579999983      -1.03543748E-07
  0.615000010       4.32748550E-07
  0.649999976       2.07239097E-07
  0.685000002      -6.47638842E-07
  0.720000029      -2.80833461E-07
  0.754999995       1.06586208E-06
  0.790000021       3.34493109E-07
  0.824999988      -1.54310908E-06
  0.860000014      -8.55284100E-07
  0.894999981       8.25208360E-07
  0.930000007      -1.71596383E-07
  0.964999974      -8.95689311E-07
   1.00000000       2.87588477E-07
   1.03499997       2.63454297E-07
   1.07000005       2.23302479E-07
   1.10500002       1.59562751E-06
   1.13999999       5.89576132E-07
   1.17499995      -1.60854677E-06
   1.21000004       4.55260185E-08
   1.24500000       1.37661004E-06
   1.27999997      -1.46790558E-06
   1.31500006      -1.55473765E-06
   1.35000002       1.34576294E-06
   1.38499999       4.38494567E-07
   1.41999996      -7.65280163E-07
   1.45500004       1.12103066E-06
   1.49000001       6.61574745E-07
   1.52499998      -1.38606697E-06
   1.55999994      -1.02296120E-07
   1.59500003       1.05634456E-06
   1.63000000      -1.91437465E-07
