 -0.800000012       0.00000000
 -0.788999975       0.00000000
 -0.777999997       0.00000000
 -0.767000020       2.21624577E-22
 -0.755999982       4.43249154E-22
 -0.745000005       5.68369780E-15
 -0.734000027      -1.70510917E-13
 -0.722999990       3.41021665E-14
 -0.712000012       4.20593573E-13
 -0.700999975      -3.06919664E-13
 -0.689999998      -8.52554626E-13
 -0.679000020       1.87562010E-12
 -0.667999983       1.32998517E-12
 -0.657000005      -2.12570261E-12
 -0.646000028       1.42092436E-12
 -0.634999990       1.69374172E-12
 -0.624000013      -9.21895719E-12
 -0.612999976      -1.94382422E-12
 -0.601999998       2.86117328E-11
 -0.591000021      -1.21630668E-12
 -0.579999983      -6.45099529E-11
 -0.569000006       9.69639299E-12
 -0.558000028       1.39193740E-10
 -0.546999991      -7.76052070E-11
 -0.536000013      -1.31441164E-10
 -0.524999976       2.52685817E-10
 -0.513999999      -5.21765660E-12
 -0.503000021      -4.63914768E-10
 -0.492000014      -2.74068390E-11
 -0.481000006       5.02222819E-10
 -0.469999999       4.55661953E-10
 -0.458999991      -3.06771941E-10
 -0.448000014      -1.08666609E-09
 -0.437000006       3.42169987E-10
 -0.425999999       1.25010646E-09
 -0.414999992      -1.43005241E-09
 -0.404000014       2.20639514E-11
 -0.393000007       2.81280466E-09
 -0.381999999      -3.08587267E-09
 -0.370999992       1.33334030E-11
 -0.360000014       6.78211620E-09
 -0.349000007      -1.39432812E-08
 -0.338000000      -9.71206315E-09
 -0.326999992       4.20606874E-08
 -0.316000015       3.86624421E-09
 -0.305000007      -7.52057119E-08
 -0.294000000       3.75617546E-08
 -0.282999992       9.15519607E-08
 -0.272000015      -1.38120697E-07
 -0.261000007      -6.64864643E-08
 -0.250000000       2.69717759E-07
 -0.238999993      -1.31452209E-08
 -0.228000000      -3.47964288E-07
 -0.216999993       1.46887317E-07
 -0.206000000       2.92619887E-07
 -0.194999993      -3.01234593E-07
 -0.184000000      -8.65716032E-08
 -0.172999993       3.76516766E-07
 -0.162000000      -2.09611528E-07
 -0.150999993      -2.90182129E-07
 -0.140000001       4.72133905E-07
 -0.128999993       8.56512443E-08
 -0.118000001      -5.75748516E-07
 -0.107000001       8.57181703E-08
  -9.60000008E-02   4.58136583E-07
  -8.50000009E-02   3.18152829E-08
  -7.40000010E-02  -2.46048160E-08
  -6.30000010E-02  -4.18171993E-07
  -5.20000011E-02  -6.30437057E-07
  -4.10000011E-02   6.01277748E-07
  -2.99999993E-02   8.05563559E-07
  -1.89999994E-02  -4.84230043E-07
  -8.00000038E-03   3.55636480E-08
   3.00000003E-03   6.35570018E-07
   1.40000004E-02  -8.92254377E-07
   2.50000004E-02  -5.43996578E-07
   3.59999985E-02   8.15807198E-07
   4.69999984E-02  -6.83591850E-07
   5.79999983E-02  -7.29879275E-07
   6.89999983E-02   1.85476858E-06
   7.99999982E-02   4.95119025E-07
   9.09999982E-02  -1.80585403E-06
  0.101999998       9.94827474E-07
  0.112999998       1.55345276E-06
  0.123999998      -2.28789872E-06
  0.135000005      -1.32944365E-06
  0.145999998       1.95533107E-06
  0.157000005       1.63511267E-08
  0.167999998      -1.23539064E-06
  0.179000005       1.74436400E-06
  0.189999998       2.00342856E-06
  0.201000005      -1.38696365E-07
  0.211999997      -3.11817166E-06
  0.223000005      -4.97138626E-06
  0.233999997       1.95831126E-06
  0.245000005       6.98730128E-06
  0.256000012      -6.05213359E-07
  0.266999990      -1.73193928E-06
  0.277999997       3.67674716E-06
  0.289000005      -5.89661340E-06
  0.300000012      -1.13131073E-05
  0.310999990       7.91547518E-06
  0.321999997       1.61828666E-05
  0.333000004      -2.56071485E-06
  0.344000012      -1.26899804E-05
  0.354999989      -3.68082874E-06
  0.365999997       4.42560122E-06
  0.377000004       6.12665508E-06
  0.388000011       2.91786750E-06
  0.398999989      -6.46013905E-06
  0.409999996      -8.17404452E-06
  0.421000004       1.20833897E-06
  0.432000011       2.81440907E-06
  0.442999989       4.99217492E-07
  0.453999996       5.99828627E-06
  0.465000004       3.80440611E-07
  0.476000011      -8.72490546E-06
  0.486999989       4.45452588E-06
  0.497999996       9.48140951E-06
  0.509000003      -9.66252537E-06
  0.519999981      -5.61378056E-06
  0.531000018       1.47442051E-05
  0.541999996      -3.74568174E-07
  0.552999973      -1.31238594E-05
  0.564000010       8.09605990E-06
  0.574999988       1.13723590E-05
  0.586000025      -1.06234502E-05
  0.597000003      -6.91832292E-06
  0.607999980       9.69458779E-06
  0.619000018      -7.08240259E-06
  0.629999995      -1.78776754E-05
  0.640999973       1.10426181E-05
  0.652000010       2.73107216E-05
  0.662999988      -6.68739744E-07
  0.674000025      -2.49887635E-05
  0.685000002      -1.05341242E-05
  0.695999980       1.06267798E-05
  0.707000017       1.20552440E-05
  0.717999995       4.97236124E-06
  0.728999972      -2.51019992E-06
  0.740000010      -9.45870852E-06
  0.750999987      -8.36047820E-06
  0.762000024       3.41448072E-06
  0.773000002       1.34872680E-05
  0.783999979       6.51138271E-06
  0.795000017      -1.14127743E-05
  0.805999994      -1.75967998E-05
  0.816999972       8.54891312E-07
  0.828000009       2.28517492E-05
  0.838999987       1.35146929E-05
  0.850000024      -1.18197859E-05
  0.861000001      -1.27236935E-05
  0.871999979      -5.39321536E-06
  0.883000016      -8.26961696E-06
  0.893999994       4.58116801E-06
  0.904999971       2.00371232E-05
  0.916000009       8.86757152E-06
  0.926999986      -1.03025186E-05
  0.938000023      -1.40782422E-05
  0.949000001      -7.16540035E-06
  0.959999979       1.23333848E-06
  0.971000016       1.46814727E-05
  0.981999993       1.93529104E-05
  0.992999971      -4.75806331E-07
   1.00399995      -1.77638613E-05
   1.01499999      -1.25923125E-05
   1.02600002      -2.81158918E-06
   1.03699994       4.78629272E-06
   1.04799998       1.23913878E-05
   1.05900002       8.37957305E-06
   1.07000005      -4.21290997E-06
   1.08099997      -7.48200046E-06
   1.09200001      -5.53062728E-06
   1.10300004      -4.03258446E-06
   1.11399996       7.51906282E-06
   1.12500000       1.40827451E-05
   1.13600004      -4.66110350E-06
   1.14699996      -1.79923609E-05
   1.15799999      -2.03221958E-07
   1.16900003       1.46199300E-05
   1.17999995       4.67750760E-06
   1.19099998      -6.83941653E-06
   1.20200002      -9.11827919E-06
   1.21300006      -5.46825822E-06
   1.22399998       4.81348297E-06
   1.23500001       9.12720589E-06
   1.24600005       3.63437039E-06
   1.25699997       8.55087933E-07
   1.26800001      -5.72045701E-06
   1.27900004      -1.19009219E-05
   1.28999996       5.24828056E-06
   1.30100000       1.81108790E-05
   1.31200004      -2.51041411E-06
   1.32299995      -1.18567295E-05
   1.33399999       3.98048451E-06
   1.34500003      -1.21109110E-06
   1.35599995      -8.53662550E-06
   1.36699998       1.22162601E-05
   1.37800002       1.08047234E-05
   1.38900006      -1.59087340E-05
