 -0.800000012       0.00000000
 -0.788999975       0.00000000
 -0.777999997       4.17240700E-22
 -0.767000020      -1.04147092E-13
 -0.755999982       3.06384773E-13
 -0.745000005      -3.68131003E-12
 -0.734000027       7.02200451E-12
 -0.722999990      -7.71614456E-12
 -0.712000012       7.44053603E-12
 -0.700999975       2.17777307E-11
 -0.689999998      -5.01500647E-11
 -0.679000020      -2.29841558E-12
 -0.667999983      -1.61930261E-10
 -0.657000005       3.06982273E-10
 -0.646000028       1.01941615E-10
 -0.634999990      -1.86154994E-10
 -0.624000013      -2.47065979E-10
 -0.612999976       2.79685219E-10
 -0.601999998      -4.05211559E-10
 -0.591000021      -3.34043349E-11
 -0.579999983       1.63732272E-09
 -0.569000006      -1.39442347E-09
 -0.558000028      -1.53686319E-09
 -0.546999991       3.59702734E-09
 -0.536000013      -1.05886411E-09
 -0.524999976      -5.53333468E-09
 -0.513999999       5.92629412E-09
 -0.503000021       4.29639258E-09
 -0.492000014      -8.92488661E-09
 -0.481000006       3.59191143E-09
 -0.469999999      -1.16249133E-09
 -0.458999991      -1.09362128E-08
 -0.448000014       2.89032940E-08
 -0.437000006      -1.83470839E-09
 -0.425999999      -5.58225963E-08
 -0.414999992       5.30380326E-08
 -0.404000014       4.40965273E-08
 -0.393000007      -1.37327604E-07
 -0.381999999       4.94314953E-08
 -0.370999992       1.71996504E-07
 -0.360000014      -1.79130893E-07
 -0.349000007      -7.27636973E-08
 -0.338000000       1.97790527E-07
 -0.326999992      -1.07100902E-07
 -0.316000015      -1.52137872E-07
 -0.305000007       4.43839866E-07
 -0.294000000      -8.71098749E-08
 -0.282999992      -3.65973307E-07
 -0.272000015       1.50102210E-07
 -0.261000007      -4.97520887E-07
 -0.250000000       2.97607755E-07
 -0.238999993       1.35099992E-06
 -0.228000000      -8.65475897E-07
 -0.216999993       2.42358276E-08
 -0.206000000      -1.02575245E-06
 -0.194999993      -2.19795311E-06
 -0.184000000       5.61814113E-06
 -0.172999993      -4.96447456E-07
 -0.162000000      -7.52455526E-06
 -0.150999993       9.38091205E-07
 -0.140000001       1.63377208E-05
 -0.128999993      -6.85961368E-06
 -0.118000001      -1.64153043E-05
 -0.107000001       9.86475698E-06
  -9.60000008E-02   1.72776868E-06
  -8.50000009E-02  -3.80857819E-06
  -7.40000010E-02   2.89518948E-06
  -6.30000010E-02   2.19893936E-05
  -5.20000011E-02  -3.07288428E-05
  -4.10000011E-02  -8.64545291E-06
  -2.99999993E-02   5.47906566E-05
  -1.89999994E-02  -4.41033044E-05
  -8.00000038E-03  -9.26579232E-05
   3.00000003E-03   1.41437195E-04
   1.40000004E-02   1.00990954E-04
   2.50000004E-02  -1.56708877E-04
   3.59999985E-02  -1.05662293E-04
   4.69999984E-02   8.39600398E-05
   5.79999983E-02   6.92347821E-05
   6.89999983E-02  -1.15168987E-05
   7.99999982E-02  -9.27580913E-06
   9.09999982E-02   8.52587527E-06
  0.101999998      -1.32905852E-05
  0.112999998      -1.69560535E-05
  0.123999998       3.73806761E-05
  0.135000005      -6.12165531E-05
  0.145999998      -2.80714648E-05
  0.157000005       6.94567207E-05
  0.167999998       7.83144424E-05
  0.179000005      -1.07046480E-05
  0.189999998      -1.91174637E-04
  0.201000005      -7.23287376E-05
  0.211999997       2.46785552E-04
  0.223000005       1.77671056E-04
  0.233999997      -2.32073435E-04
  0.245000005      -1.30506887E-04
  0.256000012       2.29368728E-04
  0.266999990       5.91704666E-05
  0.277999997      -4.06740786E-04
  0.289000005       6.29929855E-05
  0.300000012       3.98235163E-04
  0.310999990      -1.76933157E-04
  0.321999997      -2.40409907E-04
  0.333000004       1.19951801E-04
  0.344000012       1.38174699E-04
  0.354999989      -3.47986534E-05
  0.365999997       5.68423529E-05
  0.377000004      -4.71467101E-05
  0.388000011      -8.29000055E-05
  0.398999989       8.17310211E-05
  0.409999996       9.79752440E-05
  0.421000004      -2.58674030E-04
  0.432000011       4.76622927E-06
  0.442999989       3.22960754E-04
  0.453999996      -3.26217094E-04
  0.465000004       3.72995710E-05
  0.476000011       4.16735915E-04
  0.486999989      -2.63972004E-04
  0.497999996      -3.74330702E-04
  0.509000003       3.97838070E-04
  0.519999981       1.35563678E-04
  0.531000018      -5.82013512E-04
  0.541999996       2.12603758E-04
  0.552999973       8.31304991E-04
  0.564000010      -4.51853994E-04
  0.574999988      -8.36949446E-04
  0.586000025       4.09146392E-04
  0.597000003       4.04392194E-04
  0.607999980      -5.43684408E-04
  0.619000018       2.94716825E-04
  0.629999995       5.34276303E-04
  0.640999973      -6.03875262E-04
  0.652000010      -1.57007118E-04
  0.662999988       5.69923490E-04
  0.674000025      -2.48664273E-05
  0.685000002      -9.62920894E-04
  0.695999980       9.89801192E-05
  0.707000017       1.19406322E-03
  0.717999995      -1.97152185E-04
  0.728999972      -6.87082182E-04
  0.740000010       5.63593116E-04
  0.750999987       3.10967735E-04
  0.762000024      -1.04357838E-03
  0.773000002      -2.54717248E-04
  0.783999979       7.65415723E-04
  0.795000017       3.63710715E-04
  0.805999994      -3.93963885E-04
  0.816999972      -1.61660442E-04
  0.828000009       9.79164179E-05
  0.838999987      -2.90189600E-05
  0.850000024      -2.98500690E-05
  0.861000001      -2.91926358E-06
  0.871999979       1.46036109E-04
  0.883000016       2.53919803E-04
  0.893999994      -1.95764787E-05
  0.904999971      -2.10589918E-04
  0.916000009      -1.60102529E-04
  0.926999986      -7.10437889E-05
  0.938000023      -2.45918291E-05
  0.949000001       2.06128519E-04
  0.959999979      -1.13774367E-04
  0.971000016      -5.90694021E-04
  0.981999993       3.33635573E-04
  0.992999971       1.23390940E-03
   1.00399995      -1.45854661E-04
   1.01499999      -1.19968236E-03
   1.02600002       2.93551187E-04
   1.03699994       9.12847929E-04
   1.04799998      -6.74527953E-04
   1.05900002      -9.27366142E-04
   1.07000005       3.37255362E-04
   1.08099997       5.46706142E-04
   1.09200001       8.70528820E-05
   1.10300004      -7.70879633E-05
   1.11399996      -1.56065580E-04
   1.12500000       2.67851312E-04
   1.13600004       4.83550946E-04
   1.14699996      -6.44745247E-04
   1.15799999      -8.54353711E-04
   1.16900003       8.64781847E-04
   1.17999995       9.03714797E-04
   1.19099998      -9.57257638E-04
   1.20200002      -6.19394123E-04
   1.21300006       9.71999718E-04
   1.22399998       2.90374155E-04
   1.23500001      -9.11731564E-04
   1.24600005      -2.92125886E-04
   1.25699997       4.27033112E-04
   1.26800001       2.86984898E-04
   1.27900004       1.29722626E-04
   1.28999996      -1.16471158E-04
   1.30100000      -6.63789979E-05
   1.31200004       4.99932328E-04
   1.32299995       2.02072242E-05
   1.33399999      -1.11340173E-03
   1.34500003      -4.45573591E-04
   1.35599995       9.95205133E-04
   1.36699998       5.09743288E-04
   1.37800002      -6.90240122E-04
   1.38900006      -3.25753965E-04
