 -0.800000012       0.00000000
 -0.788999975       0.00000000
 -0.777999997       0.00000000
 -0.767000020       1.55368887E-24
 -0.755999982       1.25698941E-24
 -0.745000005       1.16656647E-16
 -0.734000027      -6.75942880E-17
 -0.722999990      -1.21426249E-15
 -0.712000012       1.75530659E-15
 -0.700999975      -5.36228776E-15
 -0.689999998      -2.28418697E-14
 -0.679000020       6.28035954E-17
 -0.667999983       2.90194538E-14
 -0.657000005      -1.70365414E-14
 -0.646000028       6.07584119E-14
 -0.634999990       6.90655080E-14
 -0.624000013      -9.77456709E-14
 -0.612999976      -2.26348467E-13
 -0.601999998       3.74979887E-13
 -0.591000021       5.31685861E-13
 -0.579999983      -8.82768847E-13
 -0.569000006      -4.86531930E-13
 -0.558000028       1.75935937E-12
 -0.546999991      -3.49542525E-13
 -0.536000013      -2.77334882E-12
 -0.524999976       2.48473182E-12
 -0.513999999       3.19303915E-12
 -0.503000021      -5.10316052E-12
 -0.492000014      -4.64688184E-12
 -0.481000006       4.77951966E-12
 -0.469999999       6.64374068E-12
 -0.458999991      -2.99839103E-12
 -0.448000014      -1.16331935E-11
 -0.437000006       7.16414992E-12
 -0.425999999       2.97447483E-11
 -0.414999992      -1.89037969E-11
 -0.404000014      -6.21156321E-11
 -0.393000007       3.77040586E-11
 -0.381999999       9.33374211E-11
 -0.370999992      -5.55087087E-11
 -0.360000014      -1.16675974E-10
 -0.349000007       1.75293460E-11
 -0.338000000       1.43917572E-10
 -0.326999992       1.03101999E-10
 -0.316000015      -1.55642554E-10
 -0.305000007      -2.07177886E-10
 -0.294000000       1.62348829E-10
 -0.282999992       6.64554869E-11
 -0.272000015      -1.16228242E-10
 -0.261000007       4.38950376E-10
 -0.250000000      -8.04290662E-11
 -0.238999993      -1.28022903E-09
 -0.228000000       3.51067508E-10
 -0.216999993       2.08834305E-09
 -0.206000000      -3.89507593E-10
 -0.194999993      -1.94280214E-09
 -0.184000000       4.74442818E-10
 -0.172999993       3.99987876E-10
 -0.162000000      -7.30067451E-10
 -0.150999993       1.69786085E-09
 -0.140000001       7.29658056E-10
 -0.128999993      -3.78673182E-09
 -0.118000001      -1.42338669E-10
 -0.107000001       5.26566035E-09
  -9.60000008E-02   4.71155726E-10
  -8.50000009E-02  -4.71139083E-09
  -7.40000010E-02  -1.63333680E-10
  -6.30000010E-02   2.78249668E-09
  -5.20000011E-02  -1.58798041E-09
  -4.10000011E-02  -3.50436591E-09
  -2.99999993E-02   2.14959095E-09
  -1.89999994E-02   6.67332678E-09
  -8.00000038E-03   1.94370142E-09
   3.00000003E-03  -7.85809640E-09
   1.40000004E-02  -1.10306706E-08
   2.50000004E-02   4.11300638E-09
   3.59999985E-02   1.31794815E-08
   4.69999984E-02  -3.78622289E-09
   5.79999983E-02  -1.14923626E-08
   6.89999983E-02   1.08922782E-08
   7.99999982E-02   1.24013733E-08
   9.09999982E-02  -1.53943898E-08
  0.101999998      -7.32238314E-09
  0.112999998       1.64991629E-08
  0.123999998       1.28411948E-09
  0.135000005      -1.68711711E-08
  0.145999998      -2.91128077E-09
  0.157000005       1.27660185E-08
  0.167999998       1.28826558E-08
  0.179000005       3.40506046E-09
  0.189999998      -1.39723015E-08
  0.201000005      -9.27416810E-09
  0.211999997       2.73444312E-09
  0.223000005       1.21461774E-09
  0.233999997      -7.80359510E-09
  0.245000005       8.13451917E-10
  0.256000012       1.10195977E-08
  0.266999990       4.77897988E-09
  0.277999997      -1.99241832E-08
  0.289000005      -2.36430413E-08
  0.300000012       1.90793283E-08
  0.310999990       1.74561201E-08
  0.321999997      -6.50318643E-09
  0.333000004       3.26388623E-08
  0.344000012       7.05692438E-09
  0.354999989      -3.37867405E-08
  0.365999997      -3.40547359E-08
  0.377000004       3.45064848E-08
  0.388000011       5.58333184E-08
  0.398999989      -3.07213206E-08
  0.409999996      -1.85138518E-08
  0.421000004       2.01159391E-08
  0.432000011      -3.58236427E-08
  0.442999989      -2.38198581E-08
  0.453999996       1.00954594E-07
  0.465000004       5.45921957E-08
  0.476000011      -6.38870290E-08
  0.486999989      -1.79705530E-08
  0.497999996       3.69499737E-08
  0.509000003      -9.82727766E-09
  0.519999981      -1.76035364E-08
  0.531000018       3.06834522E-08
  0.541999996      -3.92659132E-08
  0.552999973      -4.40774102E-08
  0.564000010      -1.35665710E-08
  0.574999988      -3.18600968E-08
  0.586000025      -1.18350565E-08
  0.597000003       1.00907450E-07
  0.607999980       5.06545632E-08
  0.619000018       5.08076292E-09
  0.629999995      -2.66751137E-08
  0.640999973      -6.60595347E-08
  0.652000010      -5.01591657E-08
  0.662999988      -3.40564421E-09
  0.674000025       1.12003320E-07
  0.685000002       1.03406677E-07
  0.695999980      -5.81715653E-08
  0.707000017      -1.05982217E-07
  0.717999995       5.07046494E-08
  0.728999972       8.67732766E-08
  0.740000010      -6.35947757E-08
  0.750999987      -4.55148026E-08
  0.762000024       7.17010167E-08
  0.773000002      -6.35566355E-09
  0.783999979      -9.48418162E-08
  0.795000017       1.55208024E-09
  0.805999994       8.14500538E-08
  0.816999972       4.56384157E-08
  0.828000009      -7.81295029E-08
  0.838999987      -1.59332259E-07
  0.850000024      -6.40496438E-08
  0.861000001       1.18487577E-07
  0.871999979       5.44761676E-08
  0.883000016      -2.69613896E-08
  0.893999994       4.48902675E-08
  0.904999971       1.18535262E-08
  0.916000009      -8.10878973E-08
  0.926999986       3.22285949E-08
  0.938000023       4.28007709E-08
  0.949000001      -1.46996257E-07
  0.959999979      -1.13704218E-07
  0.971000016       7.10219794E-08
  0.981999993       4.72143178E-08
  0.992999971       2.73504802E-10
   1.00399995       1.33941896E-07
   1.01499999       1.00092343E-07
   1.02600002      -1.12380164E-07
   1.03699994      -1.16475682E-07
   1.04799998       1.03547437E-08
   1.05900002      -5.30716893E-09
   1.07000005      -3.99086630E-08
   1.08099997       6.06800441E-08
   1.09200001       1.33832415E-07
   1.10300004       4.02067606E-08
   1.11399996      -7.17754318E-08
   1.12500000      -6.49783374E-08
   1.13600004      -5.54695205E-08
   1.14699996      -8.55947633E-08
   1.15799999       2.94050011E-08
   1.16900003       1.95632367E-07
   1.17999995       1.19268904E-07
   1.19099998      -1.00770219E-08
   1.20200002       3.34890053E-08
   1.21300006      -6.49927117E-08
   1.22399998      -2.62161535E-07
   1.23500001      -6.94051892E-08
   1.24600005       1.92463688E-07
   1.25699997       1.26056321E-08
   1.26800001      -8.71582202E-08
   1.27900004       1.50342899E-07
   1.28999996       5.13947711E-08
   1.30100000      -2.56422510E-07
   1.31200004      -6.07236288E-08
   1.32299995       1.98137201E-07
   1.33399999      -1.49800936E-08
   1.34500003      -8.80552236E-08
   1.35599995       1.61148506E-07
   1.36699998       6.66710207E-08
   1.37800002      -2.14705452E-07
   1.38900006      -8.48478763E-08
