 -0.800000012       0.00000000
 -0.788999975       0.00000000
 -0.777999997       0.00000000
 -0.767000020      -3.10801632E-24
 -0.755999982      -7.43311778E-17
 -0.745000005       4.53884193E-16
 -0.734000027       2.62101521E-14
 -0.722999990      -2.28792611E-14
 -0.712000012       6.31736755E-14
 -0.700999975      -2.30009273E-14
 -0.689999998      -4.76178179E-13
 -0.679000020       3.01310951E-12
 -0.667999983      -9.46642764E-12
 -0.657000005       8.18400035E-12
 -0.646000028       2.84981500E-11
 -0.634999990      -8.62416874E-11
 -0.624000013       6.30318367E-11
 -0.612999976       1.56733487E-10
 -0.601999998      -4.80118278E-10
 -0.591000021       2.47097870E-10
 -0.579999983       1.30141353E-09
 -0.569000006      -2.16103779E-09
 -0.558000028      -1.76714510E-09
 -0.546999991       6.29238750E-09
 -0.536000013       5.16809429E-10
 -0.524999976      -1.22225945E-08
 -0.513999999       3.68055764E-09
 -0.503000021       1.84823712E-08
 -0.492000014      -1.03569917E-08
 -0.481000006      -2.48577638E-08
 -0.469999999       1.43648959E-08
 -0.458999991       3.86394419E-08
 -0.448000014      -8.21709278E-09
 -0.437000006      -8.11615948E-08
 -0.425999999       3.14054316E-09
 -0.414999992       1.63165964E-07
 -0.404000014      -2.84405122E-08
 -0.393000007      -2.53280319E-07
 -0.381999999       1.03685373E-07
 -0.370999992       2.74362094E-07
 -0.360000014      -1.94430697E-07
 -0.349000007      -1.47955006E-07
 -0.338000000       1.78277318E-07
 -0.326999992      -9.72438201E-08
 -0.316000015       9.69294121E-08
 -0.305000007       1.76266113E-07
 -0.294000000      -5.49046263E-07
 -0.282999992       3.53104809E-07
 -0.272000015       6.77550247E-07
 -0.261000007      -1.57726595E-06
 -0.250000000       1.65385970E-07
 -0.238999993       2.72132115E-06
 -0.228000000      -2.06591380E-06
 -0.216999993      -2.44101261E-06
 -0.206000000       3.97192025E-06
 -0.194999993       2.63177611E-07
 -0.184000000      -4.24068594E-06
 -0.172999993       2.65516496E-06
 -0.162000000       1.96217457E-06
 -0.150999993      -3.97557687E-06
 -0.140000001       7.61059312E-07
 -0.128999993       3.02162380E-06
 -0.118000001      -1.17157754E-07
 -0.107000001      -1.14797899E-06
  -9.60000008E-02  -6.54295764E-06
  -8.50000009E-02   2.29307238E-06
  -7.40000010E-02   1.79522249E-05
  -6.30000010E-02  -1.04424753E-05
  -5.20000011E-02  -3.06047477E-05
  -4.10000011E-02   2.33059582E-05
  -2.99999993E-02   4.12558184E-05
  -1.89999994E-02  -3.13923374E-05
  -8.00000038E-03  -4.35129987E-05
   3.00000003E-03   2.51396668E-05
   1.40000004E-02   3.29127361E-05
   2.50000004E-02  -8.09512130E-06
   3.59999985E-02  -8.15918884E-06
   4.69999984E-02   2.33654214E-06
   5.79999983E-02  -9.88820921E-06
   6.89999983E-02  -3.45868102E-05
   7.99999982E-02  -1.04300816E-05
   9.09999982E-02   7.49202227E-05
  0.101999998       6.62598977E-05
  0.112999998      -9.56859003E-05
  0.123999998      -1.01882455E-04
  0.135000005       1.09316672E-04
  0.145999998       7.57284506E-05
  0.157000005      -6.80326775E-05
  0.167999998      -3.25377732E-05
  0.179000005       1.25785027E-05
  0.189999998      -4.18863128E-05
  0.201000005      -1.08887598E-05
  0.211999997       8.09261110E-05
  0.223000005       5.13875239E-05
  0.233999997      -1.02444510E-05
  0.245000005      -8.57426421E-05
  0.256000012      -7.28131999E-05
  0.266999990       9.03037580E-05
  0.277999997       1.51680550E-04
  0.289000005      -1.91138519E-04
  0.300000012      -1.27592895E-04
  0.310999990       2.83552392E-04
  0.321999997       1.52422399E-05
  0.333000004      -3.28519585E-04
  0.344000012       1.79452501E-04
  0.354999989       3.51468363E-04
  0.365999997      -3.61338316E-04
  0.377000004      -2.69889890E-04
  0.388000011       5.18537359E-04
  0.398999989      -1.64306912E-04
  0.409999996      -5.43100992E-04
  0.421000004       6.49537833E-04
  0.432000011       4.42769582E-04
  0.442999989      -1.00667542E-03
  0.453999996       1.08056547E-05
  0.465000004       1.17838627E-03
  0.476000011      -5.68785763E-04
  0.486999989      -9.40282422E-04
  0.497999996       5.25533629E-04
  0.509000003       4.65961522E-04
  0.519999981      -4.58593859E-04
  0.531000018       4.95462737E-04
  0.541999996       1.24533457E-04
  0.552999973      -9.78989410E-04
  0.564000010       3.13013617E-04
  0.574999988       5.84049965E-04
  0.586000025      -3.88310757E-04
  0.597000003       1.42063000E-04
  0.607999980       2.93404446E-04
  0.619000018      -8.71248136E-04
  0.629999995       9.63666753E-06
  0.640999973       1.13180315E-03
  0.652000010      -5.56865474E-04
  0.662999988      -7.57752918E-04
  0.674000025       9.55879805E-04
  0.685000002      -2.91328004E-04
  0.695999980      -9.12365736E-04
  0.707000017       1.54014840E-03
  0.717999995       7.56570604E-04
  0.728999972      -1.89797545E-03
  0.740000010      -6.90145302E-04
  0.750999987       1.88816374E-03
  0.762000024      -4.70351006E-05
  0.773000002      -1.27241726E-03
  0.783999979       6.29567308E-04
  0.795000017       5.03491668E-04
  0.805999994      -9.98341013E-04
  0.816999972      -2.29978352E-04
  0.828000009       9.63960774E-04
  0.838999987       3.90413916E-04
  0.850000024      -7.71433697E-04
  0.861000001      -4.59047471E-04
  0.871999979       6.36286335E-04
  0.883000016       6.65027765E-04
  0.893999994      -6.05703972E-04
  0.904999971      -6.88451226E-04
  0.916000009       2.61611422E-04
  0.926999986       3.91649635E-04
  0.938000023       1.05666340E-05
  0.949000001       3.43211199E-04
  0.959999979      -7.44100689E-05
  0.971000016      -4.34030575E-04
  0.981999993       2.60414352E-04
  0.992999971      -4.76806425E-04
   1.00399995      -7.72014842E-04
   1.01499999       1.54776650E-03
   1.02600002       1.14286400E-03
   1.03699994      -2.19171448E-03
   1.04799998      -9.23720538E-04
   1.05900002       2.00756826E-03
   1.07000005       1.10439563E-04
   1.08099997      -1.38327887E-03
   1.09200001       1.32656808E-03
   1.10300004       6.26000052E-04
   1.11399996      -2.17118999E-03
   1.12500000      -1.64658253E-04
   1.13600004       1.72143779E-03
   1.14699996      -2.62106361E-04
   1.15799999      -5.56152547E-04
   1.16900003       9.03431384E-04
   1.17999995      -5.12218976E-04
   1.19099998      -7.99991889E-04
   1.20200002       6.01599226E-04
   1.21300006      -9.75842850E-05
   1.22399998      -6.77896824E-05
   1.23500001       9.55284806E-04
   1.24600005      -5.19320711E-05
   1.25699997      -1.00905390E-03
   1.26800001      -1.74119690E-04
   1.27900004       1.73072083E-04
   1.28999996       1.59589545E-04
   1.30100000       4.79868089E-04
   1.31200004      -2.92210927E-04
   1.32299995      -3.36892786E-04
   1.33399999       1.03534525E-03
   1.34500003      -1.71976688E-04
   1.35599995      -1.77062489E-03
   1.36699998       4.94693115E-04
   1.37800002       1.63610652E-03
   1.38900006      -7.34221772E-04
