 -0.959999979      -9.75051626E-06
 -0.925000012      -1.56808583E-05
 -0.889999986      -1.14531140E-05
 -0.855000019      -3.35506775E-05
 -0.819999993      -9.46209038E-05
 -0.785000026      -1.86725549E-04
 -0.750000000      -3.18903156E-04
 -0.714999974      -5.14336512E-04
 -0.680000007      -8.03130621E-04
 -0.644999981      -1.16795278E-03
 -0.610000014      -1.45482272E-03
 -0.574999988      -1.40389369E-03
 -0.540000021      -7.17229035E-04
 -0.504999995       9.95308626E-04
 -0.469999999       4.14715009E-03
 -0.435000002       8.81855004E-03
 -0.400000006       1.44302370E-02
 -0.365000010       1.95510890E-02
 -0.330000013       2.16871053E-02
 -0.294999987       1.74792334E-02
 -0.259999990       3.81274917E-03
 -0.224999994      -2.06784997E-02
 -0.189999998      -5.45851998E-02
 -0.155000001      -9.34734493E-02
 -0.119999997     -0.130828217
  -8.50000009E-02 -0.160918832
  -5.00000007E-02 -0.183150634
  -1.49999997E-02 -0.205773741
   1.99999996E-02 -0.246475369
   5.49999997E-02 -0.328086644
   9.00000036E-02 -0.468787789
  0.125000000     -0.668563783
  0.159999996     -0.896877825
  0.194999993      -1.08814764
  0.230000004      -1.15018427
  0.264999986     -0.986830771
  0.300000012     -0.530437589
  0.335000008      0.225914061
  0.370000005       1.20912564
  0.405000001       2.26945925
  0.439999998       3.20878816
  0.474999994       3.82679391
  0.509999990       3.97102952
  0.545000017       3.57524920
  0.579999983       2.67548275
  0.615000010       1.40145886
  0.649999976      -5.20007946E-02
  0.685000002      -1.46483064
  0.720000029      -2.63329959
  0.754999995      -3.40577340
  0.790000021      -3.70716739
  0.824999988      -3.54755664
  0.860000014      -3.01255298
  0.894999981      -2.23781180
  0.930000007      -1.37507331
  0.964999974     -0.559692442
   1.00000000      0.111316793
   1.03499997      0.586491525
   1.07000005      0.855108619
   1.10500002      0.937509060
   1.13999999      0.876302123
   1.17499995      0.729112506
   1.21000004      0.559789777
   1.24500000      0.425502062
   1.27999997      0.361429214
   1.31500006      0.369699597
   1.35000002      0.420198530
   1.38499999      0.465539455
   1.41999996      0.463820130
   1.45500004      0.397159100
   1.49000001      0.275948167
   1.52499998      0.127552778
   1.55999994      -2.18316466E-02
   1.59500003     -0.159431994
   1.63000000     -0.284549236
