 -0.959999979       0.00000000
 -0.925000012      -2.93251328E-20
 -0.889999986       9.25538617E-13
 -0.855000019       3.70315376E-11
 -0.819999993      -1.30287975E-10
 -0.785000026       6.11971515E-11
 -0.750000000      -3.15770291E-14
 -0.714999974       1.20185262E-09
 -0.680000007      -2.97683589E-09
 -0.644999981       7.14618409E-09
 -0.610000014      -8.62337313E-09
 -0.574999988       2.88111179E-09
 -0.540000021       1.91296099E-08
 -0.504999995      -6.23390974E-08
 -0.469999999       1.33359421E-07
 -0.435000002      -3.31708009E-07
 -0.400000006       3.38698840E-07
 -0.365000010       2.99431605E-07
 -0.330000013      -5.55063991E-07
 -0.294999987      -7.48248624E-07
 -0.259999990       7.21234414E-07
 -0.224999994       2.34511367E-06
 -0.189999998      -1.34185996E-06
 -0.155000001      -4.80541166E-06
 -0.119999997       6.40048847E-06
  -8.50000009E-02  -1.39113229E-06
  -5.00000007E-02  -8.02900377E-06
  -1.49999997E-02   6.61315062E-06
   1.99999996E-02   1.02713357E-05
   5.49999997E-02  -6.23793358E-06
   9.00000036E-02  -6.27242889E-06
  0.125000000      -4.61517038E-06
  0.159999996      -2.80984341E-06
  0.194999993       1.35784057E-05
  0.230000004       2.06616278E-05
  0.264999986      -3.04788555E-05
  0.300000012      -2.68812782E-05
  0.335000008       5.08046724E-05
  0.370000005       2.47386288E-05
  0.405000001      -7.14537600E-05
  0.439999998      -1.36382441E-05
  0.474999994       6.80391677E-05
  0.509999990      -1.88739318E-06
  0.545000017      -4.10676839E-05
  0.579999983       2.93698449E-05
  0.615000010       1.27542990E-06
  0.649999976      -1.41616838E-05
  0.685000002      -3.46884808E-05
  0.720000029       5.56487903E-05
  0.754999995       2.13052444E-05
  0.790000021      -6.30977665E-05
  0.824999988      -4.41937991E-05
  0.860000014       8.34980892E-05
  0.894999981       1.25300530E-05
  0.930000007      -6.94903210E-05
  0.964999974       2.81135872E-05
   1.00000000       3.95022835E-05
   1.03499997      -4.08813794E-05
   1.07000005       3.85869935E-05
   1.10500002       3.98315824E-05
   1.13999999      -9.73202332E-05
   1.17499995      -2.82867895E-05
   1.21000004       1.22805242E-04
   1.24500000      -4.67432837E-05
   1.27999997      -1.15800460E-04
   1.31500006       1.10838620E-04
   1.35000002       5.49042743E-05
   1.38499999      -1.06748179E-04
   1.41999996       3.79610537E-05
   1.45500004       6.98281365E-05
   1.49000001      -9.60827529E-05
   1.52499998      -2.09253412E-05
   1.55999994       9.42836778E-05
   1.59500003      -2.80756412E-05
   1.63000000      -4.32261913E-05
