 -0.800000012       0.00000000
 -0.788999975       0.00000000
 -0.777999997       7.06222235E-23
 -0.767000020       5.71358827E-23
 -0.755999982       5.30257448E-15
 -0.745000005      -3.07246760E-15
 -0.734000027      -6.04963264E-14
 -0.722999990       8.28591278E-14
 -0.712000012      -1.88546620E-13
 -0.700999975      -1.11805357E-12
 -0.689999998       2.46595008E-13
 -0.679000020       2.35733286E-12
 -0.667999983      -7.77242908E-13
 -0.657000005       1.44268018E-12
 -0.646000028       3.91372958E-12
 -0.634999990      -7.20473117E-12
 -0.624000013      -1.34279090E-11
 -0.612999976       2.14875270E-11
 -0.601999998       3.44561046E-11
 -0.591000021      -5.71703969E-11
 -0.579999983      -4.62826270E-11
 -0.569000006       1.20096738E-10
 -0.558000028       6.22679122E-12
 -0.546999991      -2.06032191E-10
 -0.536000013       1.28830654E-10
 -0.524999976       2.71199424E-10
 -0.513999999      -3.44904189E-10
 -0.503000021      -3.56360025E-10
 -0.492000014       4.49212750E-10
 -0.481000006       5.13210141E-10
 -0.469999999      -3.53541391E-10
 -0.458999991      -8.30769731E-10
 -0.448000014       4.61933714E-10
 -0.437000006       1.88081550E-09
 -0.425999999      -1.18490662E-09
 -0.414999992      -4.17547197E-09
 -0.404000014       2.57308441E-09
 -0.393000007       7.06604775E-09
 -0.381999999      -4.23694413E-09
 -0.370999992      -9.54606350E-09
 -0.360000014       3.31991190E-09
 -0.349000007       1.18451613E-08
 -0.338000000       3.88966548E-09
 -0.326999992      -1.36163694E-08
 -0.316000015      -1.41036312E-08
 -0.305000007       1.44541543E-08
 -0.294000000       1.24378809E-08
 -0.282999992      -1.26625936E-08
 -0.272000015       1.69315850E-08
 -0.261000007       1.62723590E-09
 -0.250000000      -7.81445166E-08
 -0.238999993       1.96134842E-08
 -0.228000000       1.53116915E-07
 -0.216999993      -3.36625057E-08
 -0.206000000      -1.83233865E-07
 -0.194999993       3.92704784E-08
 -0.184000000       1.06490461E-07
 -0.172999993      -5.47504655E-08
 -0.162000000       5.89942282E-08
 -0.150999993       6.63511628E-08
 -0.140000001      -2.49299660E-07
 -0.128999993      -3.96362090E-08
 -0.118000001       4.11472342E-07
 -0.107000001       2.78861005E-08
  -9.60000008E-02  -4.53502309E-07
  -8.50000009E-02  -2.88404305E-08
  -7.40000010E-02   3.40631232E-07
  -6.30000010E-02  -6.47566694E-08
  -5.20000011E-02  -2.85766475E-07
  -4.10000011E-02   1.69889617E-07
  -2.99999993E-02   4.62622410E-07
  -1.89999994E-02  -9.35863032E-09
  -8.00000038E-03  -6.60519277E-07
   3.00000003E-03  -5.89744161E-07
   1.40000004E-02   5.44141074E-07
   2.50000004E-02   1.10046153E-06
   3.59999985E-02  -3.59055917E-07
   4.69999984E-02  -1.12144755E-06
   5.79999983E-02   6.67204688E-07
   6.89999983E-02   1.08607890E-06
   7.99999982E-02  -1.19484855E-06
   9.09999982E-02  -8.96534402E-07
  0.101999998       1.44970693E-06
  0.112999998       3.91204651E-07
  0.123999998      -1.51683332E-06
  0.135000005      -1.90699964E-07
  0.145999998       1.34714503E-06
  0.157000005       7.17906232E-07
  0.167999998      -4.25498058E-07
  0.179000005      -1.22067991E-06
  0.189999998      -5.76328546E-07
  0.201000005       7.59397551E-07
  0.211999997       4.76762978E-07
  0.223000005      -4.79001756E-07
  0.233999997      -1.82348057E-08
  0.245000005       8.55599637E-07
  0.256000012       1.80251291E-07
  0.266999990      -1.40653549E-06
  0.277999997      -1.29191005E-06
  0.289000005       1.77288678E-06
  0.300000012       1.86814384E-06
  0.310999990      -1.16284161E-06
  0.321999997       6.90124580E-07
  0.333000004       6.16368652E-07
  0.344000012      -3.01934574E-06
  0.354999989      -1.86871159E-06
  0.365999997       3.10423775E-06
  0.377000004       4.08582082E-06
  0.388000011      -2.96490043E-06
  0.398999989      -3.37941719E-06
  0.409999996       2.31078479E-06
  0.421000004      -7.86808812E-07
  0.432000011      -1.99708211E-06
  0.442999989       6.21719255E-06
  0.453999996       3.56418445E-06
  0.465000004      -7.49280071E-06
  0.476000011      -3.29830664E-06
  0.486999989       4.58350041E-06
  0.497999996       3.70148882E-07
  0.509000003      -2.47970502E-06
  0.519999981       1.84139685E-06
  0.531000018      -9.84653752E-07
  0.541999996      -3.39822122E-06
  0.552999973       1.16815193E-06
  0.564000010       5.55332406E-07
  0.574999988       7.87051277E-08
  0.586000025       6.03488797E-06
  0.597000003       2.84043745E-06
  0.607999980      -4.35575839E-06
  0.619000018      -3.51498511E-06
  0.629999995      -3.23365020E-06
  0.640999973      -1.06745711E-06
  0.652000010       2.84790417E-06
  0.662999988       7.37102209E-06
  0.674000025       4.85510554E-06
  0.685000002      -7.73522243E-06
  0.695999980      -9.51767743E-06
  0.707000017       4.94891901E-06
  0.717999995       8.76161448E-06
  0.728999972      -5.19542800E-06
  0.740000010      -6.01309512E-06
  0.750999987       6.14980809E-06
  0.762000024       1.77996048E-06
  0.773000002      -7.57012867E-06
  0.783999979       3.59442510E-07
  0.795000017       8.01326678E-06
  0.805999994       2.00392378E-06
  0.816999972      -7.25361679E-06
  0.828000009      -9.31684826E-06
  0.838999987       6.39994198E-07
  0.850000024       1.26281748E-05
  0.861000001       5.38753693E-06
  0.871999979      -6.61131662E-06
  0.883000016      -4.35722569E-07
  0.893999994       1.76431411E-06
  0.904999971      -5.72628051E-06
  0.916000009       9.26139535E-07
  0.926999986       5.63130334E-06
  0.938000023      -8.14658415E-06
  0.949000001      -7.11386247E-06
  0.959999979       9.90991975E-06
  0.971000016       7.31447881E-06
  0.981999993      -3.21583957E-06
  0.992999971       3.94216295E-06
   1.00399995       4.53722032E-06
   1.01499999      -1.11964582E-05
   1.02600002      -9.84400231E-06
   1.03699994       5.57885960E-06
   1.04799998       5.05311436E-06
   1.05900002      -2.28470026E-06
   1.07000005       2.99941894E-06
   1.08099997       7.89732167E-06
   1.09200001      -9.30604017E-07
   1.10300004      -9.34581112E-06
   1.11399996      -4.78114089E-06
   1.12500000       7.41177814E-07
   1.13600004      -9.37110315E-07
   1.14699996       3.85793282E-06
   1.15799999       1.27830517E-05
   1.16900003       4.08472306E-06
   1.17999995      -9.35042681E-06
   1.19099998      -3.89908655E-06
   1.20200002      -2.49616801E-06
   1.21300006      -1.34386601E-05
   1.22399998      -2.00566987E-07
   1.23500001       2.06647819E-05
   1.24600005       3.72776367E-06
   1.25699997      -1.27100866E-05
   1.26800001       6.26078509E-06
   1.27900004       6.29786337E-06
   1.28999996      -1.84893361E-05
   1.30100000      -5.09628944E-06
   1.31200004       2.06618042E-05
   1.32299995       2.07925109E-06
   1.33399999      -1.30087474E-05
   1.34500003       8.00584530E-06
   1.35599995       7.03301157E-06
   1.36699998      -1.70842704E-05
   1.37800002      -6.88722230E-06
   1.38900006       1.48877334E-05
