 -0.959999979       0.00000000
 -0.925000012      -6.82536154E-07
 -0.889999986      -1.09766017E-06
 -0.855000019      -1.48425431E-06
 -0.819999993      -3.44620821E-06
 -0.785000026      -8.10771871E-06
 -0.750000000      -1.65169931E-05
 -0.714999974      -3.04309287E-05
 -0.680000007      -5.25205432E-05
 -0.644999981      -8.66500341E-05
 -0.610000014      -1.34277187E-04
 -0.574999988      -1.88487626E-04
 -0.540000021      -2.32549748E-04
 -0.504999995      -2.38693348E-04
 -0.469999999      -1.62877739E-04
 -0.435000002       5.16073487E-05
 -0.400000006       4.54420486E-04
 -0.365000010       1.06172345E-03
 -0.330000013       1.82299712E-03
 -0.294999987       2.57982058E-03
 -0.259999990       3.04654427E-03
 -0.224999994       2.84671388E-03
 -0.189999998       1.59904652E-03
 -0.155000001      -9.74251481E-04
 -0.119999997      -4.94409399E-03
  -8.50000009E-02  -1.01322252E-02
  -5.00000007E-02  -1.62084140E-02
  -1.49999997E-02  -2.29527690E-02
   1.99999996E-02  -3.06125712E-02
   5.49999997E-02  -4.02060449E-02
   9.00000036E-02  -5.35786450E-02
  0.125000000      -7.30211958E-02
  0.159999996     -0.100378111
  0.194999993     -0.135802656
  0.230000004     -0.176548451
  0.264999986     -0.216315553
  0.300000012     -0.245626599
  0.335000008     -0.253446192
  0.370000005     -0.229812622
  0.405000001     -0.168807387
  0.439999998      -7.09504634E-02
  0.474999994       5.58077842E-02
  0.509999990      0.196925104
  0.545000017      0.333779812
  0.579999983      0.447192520
  0.615000010      0.521063626
  0.649999976      0.545294642
  0.685000002      0.517423570
  0.720000029      0.442756474
  0.754999995      0.333092570
  0.790000021      0.204352364
  0.824999988       7.35908672E-02
  0.860000014      -4.39766124E-02
  0.894999981     -0.137287840
  0.930000007     -0.200623438
  0.964999974     -0.233542979
   1.00000000     -0.239801899
   1.03499997     -0.225750774
   1.07000005     -0.198747486
   1.10500002     -0.165893182
   1.13999999     -0.133121863
   1.17499995     -0.104552038
   1.21000004      -8.20839927E-02
   1.24500000      -6.53667524E-02
   1.27999997      -5.22988439E-02
   1.31500006      -4.00667042E-02
   1.35000002      -2.64198687E-02
   1.38499999      -1.06528094E-02
   1.41999996       6.16789237E-03
   1.45500004       2.18145978E-02
   1.49000001       3.39690298E-02
   1.52499998       4.11309712E-02
   1.55999994       4.28977236E-02
   1.59500003       3.96027528E-02
   1.63000000       3.17374803E-02
