 -0.800000012       0.00000000
 -0.788999975       0.00000000
 -0.777999997       0.00000000
 -0.767000020      -9.87461363E-11
 -0.755999982      -4.80910346E-11
 -0.745000005      -5.11505460E-09
 -0.734000027       3.35024595E-08
 -0.722999990      -1.04261652E-07
 -0.712000012       2.23155595E-07
 -0.700999975      -1.78493963E-07
 -0.689999998      -9.40513985E-07
 -0.679000020       3.23675135E-06
 -0.667999983      -1.24091218E-06
 -0.657000005      -1.12826110E-05
 -0.646000028       1.71614101E-05
 -0.634999990       1.77606707E-05
 -0.624000013      -6.09782001E-05
 -0.612999976       2.18268860E-06
 -0.601999998       1.29966604E-04
 -0.591000021      -8.58883286E-05
 -0.579999983      -1.74986533E-04
 -0.569000006       2.49443052E-04
 -0.558000028       9.11857642E-05
 -0.546999991      -4.39847383E-04
 -0.536000013       2.28048913E-04
 -0.524999976       5.13074570E-04
 -0.513999999      -7.55405461E-04
 -0.503000021      -2.62204820E-04
 -0.492000014       1.18810800E-03
 -0.481000006      -5.19618858E-04
 -0.469999999      -1.00520474E-03
 -0.458999991       1.90352916E-03
 -0.448000014      -1.44708276E-04
 -0.437000006      -3.48510710E-03
 -0.425999999       2.08422029E-03
 -0.414999992       4.06953879E-03
 -0.404000014      -4.37064376E-03
 -0.393000007      -2.33532954E-03
 -0.381999999       6.54914835E-03
 -0.370999992      -1.69497530E-03
 -0.360000014      -7.25362683E-03
 -0.349000007       7.21978117E-03
 -0.338000000       5.17810974E-03
 -0.326999992      -1.34329824E-02
 -0.316000015      -2.65403464E-03
 -0.305000007       1.34523390E-02
 -0.294000000      -5.97001938E-03
 -0.282999992      -1.37132518E-02
 -0.272000015       9.15167201E-03
 -0.261000007       2.17263377E-03
 -0.250000000      -2.04372704E-02
 -0.238999993      -2.51495233E-03
 -0.228000000       7.93124083E-03
 -0.216999993      -2.26407386E-02
 -0.206000000      -2.53218338E-02
 -0.194999993      -2.76062591E-03
 -0.184000000      -2.41141990E-02
 -0.172999993      -4.97970730E-02
 -0.162000000      -3.37244831E-02
 -0.150999993      -4.19379361E-02
 -0.140000001      -8.38942453E-02
 -0.128999993      -9.01139602E-02
 -0.118000001      -9.16894972E-02
 -0.107000001     -0.140347898
  -9.60000008E-02 -0.178672686
  -8.50000009E-02 -0.191866621
  -7.40000010E-02 -0.244291559
  -6.30000010E-02 -0.311632454
  -5.20000011E-02 -0.348199189
  -4.10000011E-02 -0.409727067
  -2.99999993E-02 -0.508133948
  -1.89999994E-02 -0.578196406
  -8.00000038E-03 -0.646425068
   3.00000003E-03 -0.760896683
   1.40000004E-02 -0.861492693
   2.50000004E-02 -0.932442188
   3.59999985E-02  -1.04277968
   4.69999984E-02  -1.16012955
   5.79999983E-02  -1.21928883
   6.89999983E-02  -1.28053880
   7.99999982E-02  -1.36716115
   9.09999982E-02  -1.38945329
  0.101999998      -1.35719430
  0.112999998      -1.34324336
  0.123999998      -1.28183365
  0.135000005      -1.11436737
  0.145999998     -0.925693214
  0.157000005     -0.723189056
  0.167999998     -0.406673163
  0.179000005      -9.84018575E-03
  0.189999998      0.384756476
  0.201000005      0.845835090
  0.211999997       1.41214824
  0.223000005       1.97996116
  0.233999997       2.53969502
  0.245000005       3.17316890
  0.256000012       3.81752896
  0.266999990       4.38276291
  0.277999997       4.92986059
  0.289000005       5.47112036
  0.300000012       5.89519310
  0.310999990       6.20349646
  0.321999997       6.46535158
  0.333000004       6.60650253
  0.344000012       6.56422472
  0.354999989       6.42118549
  0.365999997       6.18570471
  0.377000004       5.77182817
  0.388000011       5.22421265
  0.398999989       4.62063217
  0.409999996       3.90307689
  0.421000004       3.06063843
  0.432000011       2.19631791
  0.442999989       1.30947566
  0.453999996      0.341688395
  0.465000004     -0.634979069
  0.476000011      -1.56068313
  0.486999989      -2.50388503
  0.497999996      -3.46568346
  0.509000003      -4.36049128
  0.519999981      -5.21590805
  0.531000018      -6.09944201
  0.541999996      -6.95711088
  0.552999973      -7.74745369
  0.564000010      -8.54126644
  0.574999988      -9.35020638
  0.586000025      -10.0947742
  0.597000003      -10.7776423
  0.607999980      -11.4467335
  0.619000018      -12.0437145
  0.629999995      -12.4964571
  0.640999973      -12.8260632
  0.652000010      -13.0195255
  0.662999988      -12.9861641
  0.674000025      -12.6987734
  0.685000002      -12.1746063
  0.695999980      -11.3616905
  0.707000017      -10.2189693
  0.717999995      -8.78044415
  0.728999972      -7.05283356
  0.740000010      -5.02201319
  0.750999987      -2.74976659
  0.762000024     -0.302617759
  0.773000002       2.30345964
  0.783999979       4.99202633
  0.795000017       7.63596344
  0.805999994       10.1807966
  0.816999972       12.5833197
  0.828000009       14.7174177
  0.838999987       16.4878559
  0.850000024       17.8862629
  0.861000001       18.8646297
  0.871999979       19.3367233
  0.883000016       19.3013020
  0.893999994       18.8092594
  0.904999971       17.8535614
  0.916000009       16.4367142
  0.926999986       14.6501408
  0.938000023       12.5853071
  0.949000001       10.2723331
  0.959999979       7.78385401
  0.971000016       5.25145197
  0.981999993       2.74861598
  0.992999971      0.310022891
   1.00399995      -1.96975672
   1.01499999      -3.99977970
   1.02600002      -5.77099371
   1.03699994      -7.26493120
   1.04799998      -8.42125893
   1.05900002      -9.23724747
   1.07000005      -9.75278854
   1.08099997      -9.96516323
   1.09200001      -9.87788200
   1.10300004      -9.55279350
   1.11399996      -9.03547955
   1.12500000      -8.33543301
   1.13600004      -7.50166082
   1.14699996      -6.60479879
   1.15799999      -5.66448927
   1.16900003      -4.69163895
   1.17999995      -3.74506569
   1.19099998      -2.86501837
   1.20200002      -2.03662610
   1.21300006      -1.27425683
   1.22399998     -0.624753356
   1.23500001      -7.63941407E-02
   1.24600005      0.400658160
   1.25699997      0.776093543
   1.26800001       1.04173028
   1.27900004       1.24735343
   1.28999996       1.39195693
   1.30100000       1.44697452
   1.31200004       1.45574820
   1.32299995       1.45118725
   1.33399999       1.39428544
   1.34500003       1.29555583
   1.35599995       1.21371222
   1.36699998       1.12942505
   1.37800002       1.00696576
   1.38900006      0.893021882
