 -0.959999979       0.00000000
 -0.925000012       5.45390809E-20
 -0.889999986       1.36037110E-18
 -0.855000019       1.84952505E-11
 -0.819999993       1.85438487E-11
 -0.785000026      -1.47308304E-10
 -0.750000000      -3.35260292E-10
 -0.714999974      -4.36707975E-10
 -0.680000007       1.12946097E-08
 -0.644999981      -1.73532637E-08
 -0.610000014       2.72535394E-09
 -0.574999988      -1.17150929E-08
 -0.540000021       2.06905533E-08
 -0.504999995       4.99278983E-08
 -0.469999999      -7.11473049E-08
 -0.435000002       5.69924055E-08
 -0.400000006       1.47448645E-07
 -0.365000010      -8.60214811E-07
 -0.330000013       1.44731882E-06
 -0.294999987      -1.11756037E-06
 -0.259999990      -1.06424397E-06
 -0.224999994       3.33359594E-06
 -0.189999998       1.76275648E-06
 -0.155000001      -9.33585488E-06
 -0.119999997      -3.84812495E-07
  -8.50000009E-02   1.44439646E-05
  -5.00000007E-02  -3.52525763E-06
  -1.49999997E-02  -1.08817039E-05
   1.99999996E-02   7.12076917E-06
   5.49999997E-02  -1.58791306E-06
   9.00000036E-02  -7.70175848E-06
  0.125000000       1.63054137E-05
  0.159999996       1.98883595E-06
  0.194999993      -1.28767060E-05
  0.230000004       2.47825415E-06
  0.264999986      -1.52229668E-05
  0.300000012      -1.49374819E-06
  0.335000008       4.17505253E-05
  0.370000005      -7.81547806E-06
  0.405000001      -4.25484577E-05
  0.439999998       1.03519424E-05
  0.474999994       2.97285405E-05
  0.509999990       3.13537794E-06
  0.545000017      -8.28793236E-06
  0.579999983      -1.68526785E-05
  0.615000010      -3.27597286E-06
  0.649999976       1.38455625E-05
  0.685000002      -4.86937324E-07
  0.720000029      -9.11293591E-06
  0.754999995       1.82891599E-05
  0.790000021      -3.77577362E-06
  0.824999988      -6.72631577E-05
  0.860000014       6.13820532E-07
  0.894999981       1.02124272E-04
  0.930000007       7.56241643E-05
  0.964999974      -7.43566925E-05
   1.00000000      -1.50144784E-04
   1.03499997      -1.57540089E-05
   1.07000005       1.55004716E-04
   1.10500002       5.73068100E-05
   1.13999999      -9.38916564E-05
   1.17499995      -1.64173434E-05
   1.21000004       5.98594706E-05
   1.24500000      -1.67261787E-05
   1.27999997      -3.94431954E-05
   1.31500006      -2.41775961E-05
   1.35000002      -1.83411667E-05
   1.38499999       4.96142529E-05
   1.41999996       8.32932783E-05
   1.45500004       1.09757511E-05
   1.49000001      -6.38662750E-05
   1.52499998      -7.78737303E-05
   1.55999994      -3.95072384E-05
   1.59500003       5.49540528E-05
   1.63000000       8.90112424E-05
