 -0.959999979       0.00000000
 -0.925000012       0.00000000
 -0.889999986       2.50832288E-09
 -0.855000019       2.58471928E-08
 -0.819999993       1.16054018E-07
 -0.785000026       3.14121024E-07
 -0.750000000       5.96726807E-07
 -0.714999974       1.06913194E-06
 -0.680000007       2.34136724E-06
 -0.644999981       5.29280578E-06
 -0.610000014       1.04816017E-05
 -0.574999988       1.87032856E-05
 -0.540000021       3.20337931E-05
 -0.504999995       5.30758443E-05
 -0.469999999       8.33088779E-05
 -0.435000002       1.22740064E-04
 -0.400000006       1.69415725E-04
 -0.365000010       2.17533801E-04
 -0.330000013       2.56722793E-04
 -0.294999987       2.73318554E-04
 -0.259999990       2.51740857E-04
 -0.224999994       1.77335838E-04
 -0.189999998       4.21705336E-05
 -0.155000001      -1.50171210E-04
 -0.119999997      -3.82760831E-04
  -8.50000009E-02  -6.21536805E-04
  -5.00000007E-02  -8.06713768E-04
  -1.49999997E-02  -8.41884757E-04
   1.99999996E-02  -5.83960384E-04
   5.49999997E-02   1.55290414E-04
   9.00000036E-02   1.57008902E-03
  0.125000000       3.75645142E-03
  0.159999996       6.53595896E-03
  0.194999993       9.23435949E-03
  0.230000004       1.04862619E-02
  0.264999986       8.17901827E-03
  0.300000012      -3.46541317E-04
  0.335000008      -1.77730136E-02
  0.370000005      -4.59926911E-02
  0.405000001      -8.51544961E-02
  0.439999998     -0.132828355
  0.474999994     -0.183583528
  0.509999990     -0.229225710
  0.545000017     -0.259806395
  0.579999983     -0.265331298
  0.615000010     -0.237887830
  0.649999976     -0.173749283
  0.685000002      -7.49494582E-02
  0.720000029       5.01299649E-02
  0.754999995      0.187450573
  0.790000021      0.319298357
  0.824999988      0.427236199
  0.860000014      0.495437831
  0.894999981      0.513679564
  0.930000007      0.479302943
  0.964999974      0.397682697
   1.00000000      0.281105071
   1.03499997      0.146356851
   1.07000005       1.16132339E-02
   1.10500002     -0.106677130
   1.13999999     -0.196277216
   1.17499995     -0.250599235
   1.21000004     -0.268968493
   1.24500000     -0.255851090
   1.27999997     -0.219347090
   1.31500006     -0.169317454
   1.35000002     -0.115515247
   1.38499999      -6.60457835E-02
   1.41999996      -2.63864063E-02
   1.45500004       9.30071459E-04
   1.49000001       1.60129201E-02
   1.52499998       2.08743624E-02
   1.55999994       1.85210891E-02
   1.59500003       1.21330451E-02
   1.63000000       4.48115496E-03
