 -0.959999979       0.00000000
 -0.925000012       1.72140100E-03
 -0.889999986       5.69226732E-03
 -0.855000019       3.30914441E-03
 -0.819999993       5.80980722E-03
 -0.785000026       3.13571766E-02
 -0.750000000       6.00525029E-02
 -0.714999974       8.89531299E-02
 -0.680000007      0.167205140
 -0.644999981      0.299084395
 -0.610000014      0.444502741
 -0.574999988      0.624045908
 -0.540000021      0.841690302
 -0.504999995      0.977589488
 -0.469999999      0.912964642
 -0.435000002      0.594574094
 -0.400000006      -8.45580846E-02
 -0.365000010      -1.19805169
 -0.330000013      -2.56767726
 -0.294999987      -3.82575822
 -0.259999990      -4.55094051
 -0.224999994      -4.25113773
 -0.189999998      -2.58495378
 -0.155000001      0.200624108
 -0.119999997       3.21691656
  -8.50000009E-02   5.20009756
  -5.00000007E-02   4.74555969
  -1.49999997E-02  0.854596734
   1.99999996E-02  -6.19004393
   5.49999997E-02  -14.4858589
   9.00000036E-02  -20.9574318
  0.125000000      -22.0897942
  0.159999996      -15.0671053
  0.194999993      0.655264318
  0.230000004       22.4335308
  0.264999986       44.8965988
  0.300000012       61.3063126
  0.335000008       65.5282822
  0.370000005       54.4413033
  0.405000001       29.5488472
  0.439999998      -3.30486608
  0.474999994      -35.7800331
  0.509999990      -59.7333336
  0.545000017      -70.1041107
  0.579999983      -66.5583191
  0.615000010      -52.8514023
  0.649999976      -34.6304321
  0.685000002      -16.9727516
  0.720000029      -2.49542785
  0.754999995       8.99606037
  0.790000021       18.9843597
  0.824999988       28.2125168
  0.860000014       35.7077942
  0.894999981       39.0846977
  0.930000007       35.8632545
  0.964999974       25.3659611
   1.00000000       9.92397308
   1.03499997      -5.73532104
   1.07000005      -16.5100250
   1.10500002      -19.1515083
   1.13999999      -13.8051834
   1.17499995      -4.08792925
   1.21000004       4.66177750
   1.24500000       8.06726742
   1.27999997       4.77732754
   1.31500006      -3.00237179
   1.35000002      -10.6698608
   1.38499999      -13.6844940
   1.41999996      -10.0495958
   1.45500004      -1.28707516
   1.49000001       8.47730350
   1.52499998       14.5556850
   1.55999994       13.9834089
   1.59500003       7.08556223
   1.63000000      -2.70638728
