 -0.800000012       0.00000000
 -0.788999975       0.00000000
 -0.777999997       0.00000000
 -0.767000020       0.00000000
 -0.755999982      -4.00826178E-10
 -0.745000005      -9.21744625E-10
 -0.734000027       9.91880889E-09
 -0.722999990      -7.32168282E-09
 -0.712000012      -4.33052136E-08
 -0.700999975       5.38538458E-08
 -0.689999998       9.37158688E-08
 -0.679000020      -1.74544937E-07
 -0.667999983      -9.48421714E-08
 -0.657000005       3.94308870E-07
 -0.646000028      -5.36255875E-08
 -0.634999990      -6.99512327E-07
 -0.624000013       3.50492826E-07
 -0.612999976       9.31916304E-07
 -0.601999998      -6.28951739E-07
 -0.591000021      -6.98928261E-07
 -0.579999983       8.10526046E-07
 -0.569000006      -2.78670626E-07
 -0.558000028      -1.09185271E-06
 -0.546999991       1.48757931E-06
 -0.536000013       1.41583359E-06
 -0.524999976      -1.82170061E-06
 -0.513999999      -9.66336529E-07
 -0.503000021       1.11204145E-06
 -0.492000014      -4.47765672E-07
 -0.481000006      -2.81593824E-08
 -0.469999999       1.56639419E-06
 -0.458999991      -1.44991554E-06
 -0.448000014      -1.56296107E-06
 -0.437000006       3.47434388E-06
 -0.425999999       1.36379481E-06
 -0.414999992      -4.69161205E-06
 -0.404000014      -3.57438103E-06
 -0.393000007      -3.43545844E-06
 -0.381999999      -6.45705268E-06
 -0.370999992      -1.62885135E-06
 -0.360000014      -1.38366005E-07
 -0.349000007      -1.29597120E-05
 -0.338000000      -1.94758322E-05
 -0.326999992      -1.46207631E-05
 -0.316000015      -2.06349905E-05
 -0.305000007      -3.39059334E-05
 -0.294000000      -4.21849363E-05
 -0.282999992      -5.99179184E-05
 -0.272000015      -8.55203980E-05
 -0.261000007      -1.00918449E-04
 -0.250000000      -1.22793557E-04
 -0.238999993      -1.67935039E-04
 -0.228000000      -2.19215057E-04
 -0.216999993      -2.78974127E-04
 -0.206000000      -3.63318453E-04
 -0.194999993      -4.54540976E-04
 -0.184000000      -5.52648446E-04
 -0.172999993      -6.95931842E-04
 -0.162000000      -8.80648615E-04
 -0.150999993      -1.07769889E-03
 -0.140000001      -1.30848924E-03
 -0.128999993      -1.59442681E-03
 -0.118000001      -1.91696302E-03
 -0.107000001      -2.28441437E-03
  -9.60000008E-02  -2.72103143E-03
  -8.50000009E-02  -3.20851733E-03
  -7.40000010E-02  -3.73885152E-03
  -6.30000010E-02  -4.34075482E-03
  -5.20000011E-02  -5.00969868E-03
  -4.10000011E-02  -5.72250271E-03
  -2.99999993E-02  -6.49267295E-03
  -1.89999994E-02  -7.32116075E-03
  -8.00000038E-03  -8.17829464E-03
   3.00000003E-03  -9.06807277E-03
   1.40000004E-02  -1.00042606E-02
   2.50000004E-02  -1.09556383E-02
   3.59999985E-02  -1.19003085E-02
   4.69999984E-02  -1.28550753E-02
   5.79999983E-02  -1.38183208E-02
   6.89999983E-02  -1.47786764E-02
   7.99999982E-02  -1.57594979E-02
   9.09999982E-02  -1.67838372E-02
  0.101999998      -1.78593080E-02
  0.112999998      -1.90305058E-02
  0.123999998      -2.03749482E-02
  0.135000005      -2.19610631E-02
  0.145999998      -2.38687880E-02
  0.157000005      -2.62095910E-02
  0.167999998      -2.91003305E-02
  0.179000005      -3.26688401E-02
  0.189999998      -3.70739326E-02
  0.201000005      -4.24710549E-02
  0.211999997      -4.89897877E-02
  0.223000005      -5.67659885E-02
  0.233999997      -6.59372136E-02
  0.245000005      -7.65931532E-02
  0.256000012      -8.87736902E-02
  0.266999990     -0.102487899
  0.277999997     -0.117681481
  0.289000005     -0.134211540
  0.300000012     -0.151869327
  0.310999990     -0.170371622
  0.321999997     -0.189322472
  0.333000004     -0.208227918
  0.344000012     -0.226527095
  0.354999989     -0.243579313
  0.365999997     -0.258670062
  0.377000004     -0.271049380
  0.388000011     -0.279939204
  0.398999989     -0.284547001
  0.409999996     -0.284126043
  0.421000004     -0.278007716
  0.432000011     -0.265602916
  0.442999989     -0.246452883
  0.453999996     -0.220279589
  0.465000004     -0.186981231
  0.476000011     -0.146653146
  0.486999989      -9.96382013E-02
  0.497999996      -4.65150066E-02
  0.509000003       1.19321961E-02
  0.519999981       7.46953040E-02
  0.531000018      0.140550286
  0.541999996      0.208116427
  0.552999973      0.275892556
  0.564000010      0.342286021
  0.574999988      0.405678928
  0.586000025      0.464485973
  0.597000003      0.517191947
  0.607999980      0.562410355
  0.619000018      0.598945677
  0.629999995      0.625827849
  0.640999973      0.642347693
  0.652000010      0.648088515
  0.662999988      0.642931640
  0.674000025      0.627057076
  0.685000002      0.600944936
  0.695999980      0.565352499
  0.707000017      0.521275878
  0.717999995      0.469916254
  0.728999972      0.412638277
  0.740000010      0.350913584
  0.750999987      0.286268324
  0.762000024      0.220237896
  0.773000002      0.154317752
  0.783999979       8.99104327E-02
  0.795000017       2.82838978E-02
  0.805999994      -2.94531435E-02
  0.816999972      -8.23692381E-02
  0.828000009     -0.129730999
  0.838999987     -0.171014592
  0.850000024     -0.205900460
  0.861000001     -0.234263867
  0.871999979     -0.256163806
  0.883000016     -0.271819413
  0.893999994     -0.281580955
  0.904999971     -0.285908967
  0.916000009     -0.285356045
  0.926999986     -0.280536890
  0.938000023     -0.272089720
  0.949000001     -0.260653317
  0.959999979     -0.246862695
  0.971000016     -0.231332839
  0.981999993     -0.214628130
  0.992999971     -0.197253808
   1.00399995     -0.179661959
   1.01499999     -0.162238538
   1.02600002     -0.145293668
   1.03699994     -0.129079238
   1.04799998     -0.113796107
   1.05900002      -9.95806903E-02
   1.07000005      -8.65112394E-02
   1.08099997      -7.46266320E-02
   1.09200001      -6.39290512E-02
   1.10300004      -5.43910116E-02
   1.11399996      -4.59683351E-02
   1.12500000      -3.85937020E-02
   1.13600004      -3.21784839E-02
   1.14699996      -2.66383234E-02
   1.15799999      -2.18929891E-02
   1.16900003      -1.78492088E-02
   1.17999995      -1.44212339E-02
   1.19099998      -1.15458798E-02
   1.20200002      -9.15012788E-03
   1.21300006      -7.14959158E-03
   1.22399998      -5.49259596E-03
   1.23500001      -4.14938806E-03
   1.24600005      -3.06743267E-03
   1.25699997      -2.19374290E-03
   1.26800001      -1.50756130E-03
   1.27900004      -9.86404368E-04
   1.28999996      -5.90196345E-04
   1.30100000      -2.98845756E-04
   1.31200004      -1.07307198E-04
   1.32299995       9.45142347E-06
   1.33399999       7.66824087E-05
   1.34500003       9.77452364E-05
   1.35599995       8.07356846E-05
   1.36699998       4.09770510E-05
   1.37800002      -2.15268810E-05
   1.38900006      -1.01839651E-04
