 -0.959999979       0.00000000
 -0.925000012       2.66717785E-21
 -0.889999986      -5.24688903E-06
 -0.855000019      -7.35617868E-05
 -0.819999993      -3.33957032E-05
 -0.785000026       1.03688231E-04
 -0.750000000      -1.86826204E-04
 -0.714999974      -7.34240166E-04
 -0.680000007      -7.09927524E-04
 -0.644999981      -5.85534377E-04
 -0.610000014      -1.46003056E-03
 -0.574999988      -2.86701322E-03
 -0.540000021      -3.91815184E-03
 -0.504999995      -4.67131520E-03
 -0.469999999      -4.74732555E-03
 -0.435000002      -3.69393057E-03
 -0.400000006      -2.45478121E-03
 -0.365000010      -1.49707915E-03
 -0.330000013      -6.44168060E-04
 -0.294999987      -3.64562194E-03
 -0.259999990      -1.89708397E-02
 -0.224999994      -5.60136437E-02
 -0.189999998     -0.125699967
 -0.155000001     -0.242212117
 -0.119999997     -0.417124689
  -8.50000009E-02 -0.650355101
  -5.00000007E-02 -0.921674013
  -1.49999997E-02  -1.17847633
   1.99999996E-02  -1.32691765
   5.49999997E-02  -1.24046886
   9.00000036E-02 -0.787539959
  0.125000000      0.123370804
  0.159999996       1.48363018
  0.194999993       3.13662958
  0.230000004       4.77846384
  0.264999986       6.01411057
  0.300000012       6.45527124
  0.335000008       5.84009123
  0.370000005       4.12881613
  0.405000001       1.52268171
  0.439999998      -1.59621036
  0.474999994      -4.76363707
  0.509999990      -7.53354788
  0.545000017      -9.54905224
  0.579999983      -10.5610447
  0.615000010      -10.4155149
  0.649999976      -9.05497169
  0.685000002      -6.54531097
  0.720000029      -3.10913920
  0.754999995      0.855226159
  0.790000021       4.79989576
  0.824999988       8.12204075
  0.860000014       10.3023138
  0.894999981       11.0316553
  0.930000007       10.2842712
  0.964999974       8.31011581
   1.00000000       5.54342556
   1.03499997       2.47006059
   1.07000005     -0.484326839
   1.10500002      -3.00892377
   1.13999999      -4.90287018
   1.17499995      -6.03636646
   1.21000004      -6.32640600
   1.24500000      -5.76189995
   1.27999997      -4.45865774
   1.31500006      -2.68901658
   1.35000002     -0.841857910
   1.38499999      0.691329956
   1.41999996       1.65765762
   1.45500004       2.02930546
   1.49000001       1.97525907
   1.52499998       1.73341525
   1.55999994       1.46552217
   1.59500003       1.18727505
   1.63000000      0.816132069
