 -0.959999979       0.00000000
 -0.925000012      -2.63328707E-21
 -0.889999986       5.24689722E-06
 -0.855000019       7.35617650E-05
 -0.819999993       3.33957250E-05
 -0.785000026      -1.03687955E-04
 -0.750000000       1.86826146E-04
 -0.714999974       7.34240341E-04
 -0.680000007       7.09925371E-04
 -0.644999981       5.85536065E-04
 -0.610000014       1.46003359E-03
 -0.574999988       2.86702299E-03
 -0.540000021       3.91813694E-03
 -0.504999995       4.67132963E-03
 -0.469999999       4.74723103E-03
 -0.435000002       3.69391730E-03
 -0.400000006       2.45495746E-03
 -0.365000010       1.49749918E-03
 -0.330000013       6.43218460E-04
 -0.294999987       3.64583707E-03
 -0.259999990       1.89710166E-02
 -0.224999994       5.60132675E-02
 -0.189999998      0.125701770
 -0.155000001      0.242212012
 -0.119999997      0.417120457
  -8.50000009E-02  0.650355339
  -5.00000007E-02  0.921681762
  -1.49999997E-02   1.17847860
   1.99999996E-02   1.32690716
   5.49999997E-02   1.24046195
   9.00000036E-02  0.787546217
  0.125000000     -0.123358160
  0.159999996      -1.48362947
  0.194999993      -3.13664532
  0.230000004      -4.77847099
  0.264999986      -6.01409483
  0.300000012      -6.45526123
  0.335000008      -5.84009933
  0.370000005      -4.12882233
  0.405000001      -1.52268052
  0.439999998       1.59621108
  0.474999994       4.76361704
  0.509999990       7.53355360
  0.545000017       9.54908657
  0.579999983       10.5610495
  0.615000010       10.4154854
  0.649999976       9.05496311
  0.685000002       6.54532385
  0.720000029       3.10915565
  0.754999995     -0.855215251
  0.790000021      -4.79990768
  0.824999988      -8.12207985
  0.860000014      -10.3023310
  0.894999981      -11.0316677
  0.930000007      -10.2842550
  0.964999974      -8.31004524
   1.00000000      -5.54339218
   1.03499997      -2.47008395
   1.07000005      0.484293908
   1.10500002       3.00890517
   1.13999999       4.90286732
   1.17499995       6.03636312
   1.21000004       6.32642412
   1.24500000       5.76191521
   1.27999997       4.45864248
   1.31500006       2.68899727
   1.35000002      0.841862917
   1.38499999     -0.691313267
   1.41999996      -1.65766442
   1.45500004      -2.02933049
   1.49000001      -1.97526193
   1.52499998      -1.73338449
   1.55999994      -1.46548903
   1.59500003      -1.18727183
   1.63000000     -0.816154718
