 -0.959999979       0.00000000
 -0.925000012       0.00000000
 -0.889999986      -1.00018904E-09
 -0.855000019      -2.00037809E-09
 -0.819999993       8.01662114E-09
 -0.785000026       6.18396001E-09
 -0.750000000       5.24856887E-08
 -0.714999974      -1.96881203E-07
 -0.680000007       2.62448083E-07
 -0.644999981      -4.17937770E-07
 -0.610000014       9.12830103E-07
 -0.574999988       7.13583177E-07
 -0.540000021      -9.04049898E-07
 -0.504999995      -6.72491979E-06
 -0.469999999       9.16044246E-06
 -0.435000002       2.04761432E-06
 -0.400000006      -1.43584225E-06
 -0.365000010      -1.16627934E-05
 -0.330000013       1.56713959E-05
 -0.294999987      -2.28349072E-05
 -0.259999990       4.57062742E-05
 -0.224999994      -4.83491640E-05
 -0.189999998       2.63941620E-05
 -0.155000001      -1.09947923E-05
 -0.119999997      -6.60205405E-05
  -8.50000009E-02   1.04403545E-04
  -5.00000007E-02  -8.22276718E-07
  -1.49999997E-02  -5.88612165E-05
   1.99999996E-02   7.35687718E-05
   5.49999997E-02   3.00201755E-05
   9.00000036E-02  -2.61880952E-04
  0.125000000       1.48706851E-04
  0.159999996       1.59805641E-04
  0.194999993      -2.12987303E-04
  0.230000004       1.18742260E-04
  0.264999986       1.07536296E-04
  0.300000012      -2.42826383E-04
  0.335000008       4.67995960E-05
  0.370000005       1.50229665E-04
  0.405000001      -1.30253728E-04
  0.439999998       2.71535578E-06
  0.474999994       1.23346996E-04
  0.509999990      -1.40995602E-04
  0.545000017      -4.14882415E-05
  0.579999983       1.62741140E-04
  0.615000010      -1.11428431E-04
  0.649999976      -3.04590012E-05
  0.685000002       1.93820757E-04
  0.720000029      -9.21331157E-05
  0.754999995      -1.03591912E-04
  0.790000021       1.57011571E-04
  0.824999988       2.39923952E-06
  0.860000014      -2.33324958E-04
  0.894999981       6.02568725E-05
  0.930000007       2.22252347E-04
  0.964999974      -1.06072184E-04
   1.00000000      -1.88344973E-04
   1.03499997       1.79641371E-04
   1.07000005       1.73436551E-04
   1.10500002      -2.39703033E-04
   1.13999999      -1.26133222E-04
   1.17499995       3.02146975E-04
   1.21000004      -9.53428116E-06
   1.24500000      -3.22080130E-04
   1.27999997       1.66034166E-04
   1.31500006       2.37944783E-04
   1.35000002      -2.67178024E-04
   1.38499999      -5.33049897E-05
   1.41999996       2.49145931E-04
   1.45500004      -1.34334681E-04
   1.49000001      -1.18112803E-04
   1.52499998       1.96894209E-04
   1.55999994      -5.29957288E-05
   1.59500003      -1.16545489E-04
   1.63000000       1.67511622E-04
