 -0.959999979       0.00000000
 -0.925000012      -2.66717785E-21
 -0.889999986      -5.24689767E-06
 -0.855000019      -7.35617723E-05
 -0.819999993      -3.33957396E-05
 -0.785000026       1.03688028E-04
 -0.750000000      -1.86826059E-04
 -0.714999974      -7.34240399E-04
 -0.680000007      -7.09927699E-04
 -0.644999981      -5.85527974E-04
 -0.610000014      -1.46004430E-03
 -0.574999988      -2.86701717E-03
 -0.540000021      -3.91812762E-03
 -0.504999995      -4.67132824E-03
 -0.469999999      -4.74724686E-03
 -0.435000002      -3.69400345E-03
 -0.400000006      -2.45490368E-03
 -0.365000010      -1.49702444E-03
 -0.330000013      -6.44249376E-04
 -0.294999987      -3.64544056E-03
 -0.259999990      -1.89700909E-02
 -0.224999994      -5.60141094E-02
 -0.189999998     -0.125701651
 -0.155000001     -0.242210269
 -0.119999997     -0.417123407
  -8.50000009E-02 -0.650359750
  -5.00000007E-02 -0.921674073
  -1.49999997E-02  -1.17847192
   1.99999996E-02  -1.32691658
   5.49999997E-02  -1.24047256
   9.00000036E-02 -0.787537217
  0.125000000      0.123366542
  0.159999996       1.48362637
  0.194999993       3.13663673
  0.230000004       4.77846432
  0.264999986       6.01409960
  0.300000012       6.45526791
  0.335000008       5.84009933
  0.370000005       4.12883043
  0.405000001       1.52268136
  0.439999998      -1.59622324
  0.474999994      -4.76363373
  0.509999990      -7.53355360
  0.545000017      -9.54906464
  0.579999983      -10.5610332
  0.615000010      -10.4154940
  0.649999976      -9.05499840
  0.685000002      -6.54533482
  0.720000029      -3.10911989
  0.754999995      0.855245352
  0.790000021       4.79988956
  0.824999988       8.12204170
  0.860000014       10.3023176
  0.894999981       11.0316591
  0.930000007       10.2842760
  0.964999974       8.31009674
   1.00000000       5.54343128
   1.03499997       2.47005558
   1.07000005     -0.484356970
   1.10500002      -3.00891876
   1.13999999      -4.90283918
   1.17499995      -6.03636265
   1.21000004      -6.32642984
   1.24500000      -5.76187611
   1.27999997      -4.45862484
   1.31500006      -2.68904567
   1.35000002     -0.841907799
   1.38499999      0.691324174
   1.41999996       1.65770543
   1.45500004       2.02934623
   1.49000001       1.97524965
   1.52499998       1.73338521
   1.55999994       1.46549964
   1.59500003       1.18725514
   1.63000000      0.816131651
