 -0.959999979       6.82809250E-03
 -0.925000012       1.30571635E-03
 -0.889999986       6.55623013E-03
 -0.855000019       2.53341570E-02
 -0.819999993       4.73354459E-02
 -0.785000026       8.64850134E-02
 -0.750000000      0.162127078
 -0.714999974      0.282120377
 -0.680000007      0.460904896
 -0.644999981      0.704235137
 -0.610000014      0.987644374
 -0.574999988       1.26568615
 -0.540000021       1.44590092
 -0.504999995       1.36399555
 -0.469999999      0.853167892
 -0.435000002     -0.184807211
 -0.400000006      -1.76387084
 -0.365000010      -3.71803379
 -0.330000013      -5.57509279
 -0.294999987      -6.64684343
 -0.259999990      -6.29793501
 -0.224999994      -4.17674255
 -0.189999998     -0.441223383
 -0.155000001       3.99919486
 -0.119999997       7.53373671
  -8.50000009E-02   8.37334347
  -5.00000007E-02   5.28479671
  -1.49999997E-02  -1.76335728
   1.99999996E-02  -11.1921806
   5.49999997E-02  -19.8919487
   9.00000036E-02  -24.0396023
  0.125000000      -20.4593754
  0.159999996      -7.97722578
  0.194999993       11.7372217
  0.230000004       34.2002182
  0.264999986       53.1947937
  0.300000012       62.6784859
  0.335000008       58.8359413
  0.370000005       41.4895325
  0.405000001       14.3107967
  0.439999998      -16.3102665
  0.474999994      -43.3144035
  0.509999990      -61.0919685
  0.545000017      -66.8993454
  0.579999983      -61.1861801
  0.615000010      -46.8534889
  0.649999976      -27.9123955
  0.685000002      -8.28297234
  0.720000029       8.86941814
  0.754999995       21.4135857
  0.790000021       28.3431530
  0.824999988       29.6974831
  0.860000014       26.4119263
  0.894999981       20.1633568
  0.930000007       12.9926920
  0.964999974       6.63015652
   1.00000000       1.96029830
   1.03499997     -0.969407082
   1.07000005      -2.54840851
   1.10500002      -3.17066216
   1.13999999      -2.94947410
   1.17499995      -1.73544455
   1.21000004      0.475766420
   1.24500000       3.07896972
   1.27999997       4.87886667
   1.31500006       4.69150019
   1.35000002       2.09126711
   1.38499999      -2.20033431
   1.41999996      -6.54322052
   1.45500004      -9.16609097
   1.49000001      -9.10094547
   1.52499998      -6.69013596
   1.55999994      -3.32769418
   1.59500003     -0.577269852
   1.63000000      0.762291789
