 -0.959999979       0.00000000
 -0.925000012      -7.46346568E-21
 -0.889999986       5.24690222E-06
 -0.855000019       7.35618378E-05
 -0.819999993       3.33958233E-05
 -0.785000026      -1.03687984E-04
 -0.750000000       1.86826219E-04
 -0.714999974       7.34241388E-04
 -0.680000007       7.09928398E-04
 -0.644999981       5.85531408E-04
 -0.610000014       1.46004418E-03
 -0.574999988       2.86702346E-03
 -0.540000021       3.91815137E-03
 -0.504999995       4.67133382E-03
 -0.469999999       4.74720076E-03
 -0.435000002       3.69402277E-03
 -0.400000006       2.45507131E-03
 -0.365000010       1.49698532E-03
 -0.330000013       6.44020445E-04
 -0.294999987       3.64513206E-03
 -0.259999990       1.89701803E-02
 -0.224999994       5.60146272E-02
 -0.189999998      0.125701234
 -0.155000001      0.242209151
 -0.119999997      0.417123765
  -8.50000009E-02  0.650359392
  -5.00000007E-02  0.921673775
  -1.49999997E-02   1.17847145
   1.99999996E-02   1.32691443
   5.49999997E-02   1.24047410
   9.00000036E-02  0.787535489
  0.125000000     -0.123365261
  0.159999996      -1.48361468
  0.194999993      -3.13662601
  0.230000004      -4.77847767
  0.264999986      -6.01411152
  0.300000012      -6.45526028
  0.335000008      -5.84008026
  0.370000005      -4.12882948
  0.405000001      -1.52270341
  0.439999998       1.59621537
  0.474999994       4.76362658
  0.509999990       7.53354645
  0.545000017       9.54906368
  0.579999983       10.5610247
  0.615000010       10.4154949
  0.649999976       9.05499935
  0.685000002       6.54535484
  0.720000029       3.10913587
  0.754999995     -0.855231285
  0.790000021      -4.79990196
  0.824999988      -8.12205029
  0.860000014      -10.3023186
  0.894999981      -11.0316696
  0.930000007      -10.2842932
  0.964999974      -8.31006622
   1.00000000      -5.54337835
   1.03499997      -2.47007918
   1.07000005      0.484280586
   1.10500002       3.00891542
   1.13999999       4.90287828
   1.17499995       6.03636360
   1.21000004       6.32640457
   1.24500000       5.76188993
   1.27999997       4.45865679
   1.31500006       2.68903685
   1.35000002      0.841874838
   1.38499999     -0.691334188
   1.41999996      -1.65768981
   1.45500004      -2.02933431
   1.49000001      -1.97524154
   1.52499998      -1.73336351
   1.55999994      -1.46549165
   1.59500003      -1.18728077
   1.63000000     -0.816161871
