 -0.959999979       0.00000000
 -0.925000012       0.00000000
 -0.889999986      -1.45581436E-09
 -0.855000019      -1.82019928E-08
 -0.819999993      -2.89432673E-08
 -0.785000026      -5.74302028E-08
 -0.750000000      -1.58713306E-07
 -0.714999974      -3.42659007E-07
 -0.680000007      -7.74557520E-07
 -0.644999981      -1.57725299E-06
 -0.610000014      -2.64276491E-06
 -0.574999988      -4.56747875E-06
 -0.540000021      -8.51156437E-06
 -0.504999995      -1.44679234E-05
 -0.469999999      -2.20971378E-05
 -0.435000002      -3.24646717E-05
 -0.400000006      -4.57738315E-05
 -0.365000010      -6.01834508E-05
 -0.330000013      -7.57058515E-05
 -0.294999987      -9.63772836E-05
 -0.259999990      -1.32280096E-04
 -0.224999994      -2.11180552E-04
 -0.189999998      -3.94818228E-04
 -0.155000001      -7.91564467E-04
 -0.119999997      -1.57036015E-03
  -8.50000009E-02  -2.97015323E-03
  -5.00000007E-02  -5.28245140E-03
  -1.49999997E-02  -8.79868586E-03
   1.99999996E-02  -1.37264142E-02
   5.49999997E-02  -2.00732406E-02
   9.00000036E-02  -2.75163502E-02
  0.125000000      -3.53067592E-02
  0.159999996      -4.22543772E-02
  0.194999993      -4.68208231E-02
  0.230000004      -4.73349839E-02
  0.264999986      -4.23114486E-02
  0.300000012      -3.08003835E-02
  0.335000008      -1.26825199E-02
  0.370000005       1.11589292E-02
  0.405000001       3.88388038E-02
  0.439999998       6.76555783E-02
  0.474999994       9.44225118E-02
  0.509999990      0.115879849
  0.545000017      0.129127830
  0.579999983      0.132021829
  0.615000010      0.123475187
  0.649999976      0.103638113
  0.685000002       7.39391297E-02
  0.720000029       3.69831994E-02
  0.754999995      -3.68946255E-03
  0.790000021      -4.39663976E-02
  0.824999988      -7.96243176E-02
  0.860000014     -0.106857315
  0.894999981     -0.122820467
  0.930000007     -0.126105189
  0.964999974     -0.117035076
   1.00000000      -9.76740569E-02
   1.03499997      -7.14882165E-02
   1.07000005      -4.26892638E-02
   1.10500002      -1.53962690E-02
   1.13999999       7.15916930E-03
   1.17499995       2.31562648E-02
   1.21000004       3.22999023E-02
   1.24500000       3.55314910E-02
   1.27999997       3.44805047E-02
   1.31500006       3.08818184E-02
   1.35000002       2.61592753E-02
   1.38499999       2.12633722E-02
   1.41999996       1.67221297E-02
   1.45500004       1.27844727E-02
   1.49000001       9.53549705E-03
   1.52499998       6.93032751E-03
   1.55999994       4.77846852E-03
   1.59500003       2.75908574E-03
   1.63000000       5.26762917E-04
