 -0.800000012       0.00000000
 -0.788999975       1.47874437E-18
 -0.777999997       3.05117951E-19
 -0.767000020       4.49039677E-14
 -0.755999982       2.87946628E-11
 -0.745000005      -7.25595140E-11
 -0.734000027      -4.92646826E-11
 -0.722999990       3.24855455E-11
 -0.712000012       1.00193062E-10
 -0.700999975       7.86105209E-11
 -0.689999998      -9.87346940E-11
 -0.679000020      -1.00239428E-10
 -0.667999983       8.60909677E-11
 -0.657000005      -3.41893430E-10
 -0.646000028      -3.73582609E-10
 -0.634999990       1.02474629E-09
 -0.624000013       1.21709398E-09
 -0.612999976      -1.00696085E-09
 -0.601999998      -1.17656718E-09
 -0.591000021      -1.32035174E-10
 -0.579999983       2.66603117E-09
 -0.569000006      -6.28942320E-09
 -0.558000028      -1.75333570E-09
 -0.546999991       1.60514499E-08
 -0.536000013      -1.28157245E-08
 -0.524999976      -1.29706548E-08
 -0.513999999       3.97735533E-08
 -0.503000021      -9.93109817E-10
 -0.492000014      -3.15278896E-08
 -0.481000006       8.10904177E-10
 -0.469999999      -3.22840350E-08
 -0.458999991       2.40418370E-08
 -0.448000014       7.79049572E-08
 -0.437000006      -1.16720258E-07
 -0.425999999      -1.22025128E-07
 -0.414999992       2.20729575E-07
 -0.404000014       2.40742732E-08
 -0.393000007      -4.56841249E-08
 -0.381999999       2.79722116E-07
 -0.370999992      -1.63956244E-07
 -0.360000014      -5.10832876E-07
 -0.349000007       3.61680719E-07
 -0.338000000       4.71730573E-07
 -0.326999992      -1.02090246E-06
 -0.316000015      -1.76393513E-07
 -0.305000007       1.41681483E-06
 -0.294000000      -2.66597567E-07
 -0.282999992      -5.63449419E-07
 -0.272000015       1.06642631E-06
 -0.261000007      -3.93135338E-07
 -0.250000000      -1.32036860E-06
 -0.238999993       5.09709878E-07
 -0.228000000       4.89083106E-07
 -0.216999993      -1.12445900E-06
 -0.206000000       1.74917474E-07
 -0.194999993       2.19168874E-06
 -0.184000000      -3.30223969E-07
 -0.172999993      -2.53472308E-06
 -0.162000000      -1.19759011E-06
 -0.150999993       1.54497968E-07
 -0.140000001       3.05237336E-06
 -0.128999993       6.07765605E-06
 -0.118000001      -6.22048503E-07
 -0.107000001      -8.79564323E-06
  -9.60000008E-02  -1.01038449E-06
  -8.50000009E-02   7.57109501E-06
  -7.40000010E-02   7.69896644E-07
  -6.30000010E-02  -2.19934850E-06
  -5.20000011E-02   2.56974909E-06
  -4.10000011E-02  -5.44560271E-06
  -2.99999993E-02  -1.12770304E-05
  -1.89999994E-02   4.04368302E-06
  -8.00000038E-03   9.79963716E-06
   3.00000003E-03  -2.86660196E-07
   1.40000004E-02   2.10340386E-06
   2.50000004E-02   3.74225283E-06
   3.59999985E-02  -9.22147319E-06
   4.69999984E-02  -8.36825529E-06
   5.79999983E-02   6.70166128E-06
   6.89999983E-02   5.66942163E-06
   7.99999982E-02  -9.21526464E-07
   9.09999982E-02   1.68907843E-06
  0.101999998       4.34274426E-07
  0.112999998      -5.43498209E-06
  0.123999998      -4.91681067E-06
  0.135000005       3.31968408E-06
  0.145999998       1.02565118E-05
  0.157000005       3.86694001E-06
  0.167999998      -9.15006058E-06
  0.179000005      -6.89376884E-06
  0.189999998       1.97930126E-06
  0.201000005      -1.36645792E-06
  0.211999997      -2.32615503E-06
  0.223000005       6.12348140E-06
  0.233999997      -3.58395909E-07
  0.245000005      -1.01601481E-05
  0.256000012       5.99773330E-06
  0.266999990       1.68294991E-05
  0.277999997       1.05744880E-06
  0.289000005      -1.00304251E-05
  0.300000012      -8.97528571E-06
  0.310999990      -2.47660341E-06
  0.321999997       9.99136228E-06
  0.333000004       1.04742358E-05
  0.344000012       2.83185784E-07
  0.354999989      -1.91176650E-06
  0.365999997      -6.82969085E-06
  0.377000004      -9.12086671E-06
  0.388000011       2.06377149E-06
  0.398999989       8.33425759E-07
  0.409999996      -3.24513212E-06
  0.421000004       9.47069566E-06
  0.432000011       3.22561573E-06
  0.442999989      -1.86498237E-05
  0.453999996       6.96418283E-07
  0.465000004       2.90260177E-05
  0.476000011       3.23197719E-06
  0.486999989      -2.74137255E-05
  0.497999996      -1.57929244E-05
  0.509000003       3.22753704E-06
  0.519999981       1.49671760E-05
  0.531000018       2.12012328E-05
  0.541999996       1.37696691E-06
  0.552999973      -2.03441687E-05
  0.564000010      -4.25309145E-06
  0.574999988       9.73033548E-06
  0.586000025      -3.68031624E-06
  0.597000003      -4.92794186E-07
  0.607999980       1.30780963E-05
  0.619000018      -1.10684857E-06
  0.629999995      -1.86561192E-05
  0.640999973      -1.13509159E-05
  0.652000010       5.01227123E-06
  0.662999988       1.75829136E-05
  0.674000025       1.62273591E-05
  0.685000002      -5.86484248E-06
  0.695999980      -1.89916555E-05
  0.707000017      -7.41279200E-06
  0.717999995      -7.32774126E-08
  0.728999972       2.33943501E-06
  0.740000010       1.50064179E-05
  0.750999987       1.09809089E-05
  0.762000024      -1.22001229E-05
  0.773000002      -1.10189276E-05
  0.783999979       4.61167519E-06
  0.795000017      -1.43637749E-06
  0.805999994      -1.97374970E-06
  0.816999972       1.57093218E-05
  0.828000009       7.10537552E-06
  0.838999987      -1.90647443E-05
  0.850000024      -1.25564666E-05
  0.861000001       7.47296781E-06
  0.871999979       3.45080002E-06
  0.883000016      -1.96725978E-06
  0.893999994       7.21744300E-06
  0.904999971       7.03443584E-06
  0.916000009      -5.17494436E-06
  0.926999986      -8.43327780E-06
  0.938000023       3.74722504E-07
  0.949000001       5.59797400E-06
  0.959999979      -3.65916435E-06
  0.971000016      -8.33251488E-06
  0.981999993       1.14947152E-05
  0.992999971       1.86784000E-05
   1.00399995      -1.31001398E-05
   1.01499999      -2.29619782E-05
   1.02600002       1.13481119E-05
   1.03699994       1.49674370E-05
   1.04799998      -1.08556542E-05
   1.05900002       5.21385709E-06
   1.07000005       2.07051835E-05
   1.08099997      -1.83474858E-05
   1.09200001      -2.98605573E-05
   1.10300004       1.36721237E-05
   1.11399996       1.65409656E-05
   1.12500000      -1.10087385E-05
   1.13600004       9.59642512E-06
   1.14699996       2.14144493E-05
   1.15799999      -2.41731104E-05
   1.16900003      -3.24495268E-05
   1.17999995       2.00905888E-05
   1.19099998       2.94125402E-05
   1.20200002      -9.93968024E-06
   1.21300006      -1.31443749E-05
   1.22399998       9.14516477E-06
   1.23500001       5.91872777E-07
   1.24600005      -1.45044969E-05
   1.25699997       3.64437710E-07
   1.26800001       1.35830596E-05
   1.27900004      -2.65204881E-06
   1.28999996      -1.25992956E-05
   1.30100000       8.69180622E-06
   1.31200004       1.82892254E-05
   1.32299995      -7.96104268E-06
   1.33399999      -1.87182886E-05
   1.34500003       5.44679142E-06
   1.35599995       8.95417634E-06
   1.36699998      -1.23540422E-05
   1.37800002      -1.76440824E-06
   1.38900006       2.31732720E-05
