 -0.959999979       0.00000000
 -0.925000012       2.04761022E-06
 -0.889999986       1.70045241E-05
 -0.855000019       5.45860894E-05
 -0.819999993       8.80491352E-05
 -0.785000026       6.90111556E-05
 -0.750000000       1.54938098E-04
 -0.714999974       6.52923482E-04
 -0.680000007       1.37077703E-03
 -0.644999981       1.82641484E-03
 -0.610000014       2.47583236E-03
 -0.574999988       4.17045830E-03
 -0.540000021       6.29514270E-03
 -0.504999995       7.50285946E-03
 -0.469999999       7.50866439E-03
 -0.435000002       5.91385039E-03
 -0.400000006       1.17751095E-03
 -0.365000010      -7.28909438E-03
 -0.330000013      -1.84433926E-02
 -0.294999987      -3.11620962E-02
 -0.259999990      -4.31238748E-02
 -0.224999994      -4.96004894E-02
 -0.189999998      -4.66758236E-02
 -0.155000001      -3.28548662E-02
 -0.119999997      -5.04879188E-03
  -8.50000009E-02   4.37550470E-02
  -5.00000007E-02  0.122453913
  -1.49999997E-02  0.239258498
   1.99999996E-02  0.392917335
   5.49999997E-02  0.551471353
   9.00000036E-02  0.629848063
  0.125000000      0.484199166
  0.159999996      -6.62051439E-02
  0.194999993      -1.18081117
  0.230000004      -2.90543389
  0.264999986      -5.07618761
  0.300000012      -7.26604986
  0.335000008      -8.81076717
  0.370000005      -8.93234825
  0.405000001      -6.94860601
  0.439999998      -2.51537108
  0.474999994       4.17384720
  0.509999990       12.2951078
  0.545000017       20.4537487
  0.579999983       26.9129696
  0.615000010       29.9551105
  0.649999976       28.2948856
  0.685000002       21.4527493
  0.720000029       9.99284840
  0.754999995      -4.46757984
  0.790000021      -19.5183353
  0.824999988      -32.4377632
  0.860000014      -40.7835922
  0.894999981      -42.9537888
  0.930000007      -38.5662041
  0.964999974      -28.5366249
   1.00000000      -14.8331060
   1.03499997       3.74026597E-03
   1.07000005       13.4311953
   1.10500002       23.4206181
   1.13999999       28.7984791
   1.17499995       29.3492222
   1.21000004       25.7033405
   1.24500000       19.0910549
   1.27999997       11.0413761
   1.31500006       3.07962203
   1.35000002      -3.53692031
   1.38499999      -8.00821877
   1.41999996      -10.0758162
   1.45500004      -9.98665810
   1.49000001      -8.34402752
   1.52499998      -5.88953543
   1.55999994      -3.29366422
   1.59500003      -1.03173029
   1.63000000      0.627501488
