 -0.800000012       0.00000000
 -0.788999975       0.00000000
 -0.777999997       1.80442607E-34
 -0.767000020       3.40568437E-12
 -0.755999982      -2.50902320E-11
 -0.745000005       5.01716620E-11
 -0.734000027      -6.55700537E-12
 -0.722999990      -1.49244783E-10
 -0.712000012       9.29323146E-11
 -0.700999975       1.34569592E-10
 -0.689999998      -1.38704909E-10
 -0.679000020      -5.63786351E-10
 -0.667999983       1.55513746E-09
 -0.657000005       3.16614290E-09
 -0.646000028      -1.04212301E-08
 -0.634999990      -1.75369563E-09
 -0.624000013       2.14998082E-08
 -0.612999976       1.53278579E-09
 -0.601999998      -3.79289276E-08
 -0.591000021      -7.20523508E-09
 -0.579999983       5.91778928E-08
 -0.569000006       2.85503408E-08
 -0.558000028      -7.14692092E-08
 -0.546999991      -8.88417091E-08
 -0.536000013       7.46619762E-08
 -0.524999976       1.70249976E-07
 -0.513999999      -8.09494267E-08
 -0.503000021      -1.98437476E-07
 -0.492000014       1.27368253E-07
 -0.481000006       1.73839805E-08
 -0.469999999      -5.58615021E-08
 -0.458999991       2.91684785E-07
 -0.448000014      -2.67797816E-07
 -0.437000006      -5.33222419E-07
 -0.425999999       7.91475316E-07
 -0.414999992       4.70205606E-07
 -0.404000014      -9.36811830E-07
 -0.393000007       2.12839772E-08
 -0.381999999      -3.53130929E-07
 -0.370999992       5.62053856E-07
 -0.360000014       1.46063292E-06
 -0.349000007      -3.51308358E-06
 -0.338000000       4.94130802E-07
 -0.326999992       7.32209764E-06
 -0.316000015      -4.78718584E-06
 -0.305000007      -8.03188232E-06
 -0.294000000       7.63305798E-06
 -0.282999992       3.67219377E-06
 -0.272000015      -6.57493547E-06
 -0.261000007      -6.52326378E-07
 -0.250000000       1.46075490E-06
 -0.238999993       2.40093050E-06
 -0.228000000       9.32600233E-06
 -0.216999993       1.15413613E-05
 -0.206000000      -2.29908419E-05
 -0.194999993      -5.78151048E-05
 -0.184000000       5.83709107E-06
 -0.172999993       1.14722301E-04
 -0.162000000       6.05299756E-05
 -0.150999993      -1.24196216E-04
 -0.140000001      -1.32238900E-04
 -0.128999993       6.84550905E-05
 -0.118000001       1.47825936E-04
 -0.107000001       1.40678467E-05
  -9.60000008E-02  -1.20645891E-04
  -8.50000009E-02  -9.74665309E-05
  -7.40000010E-02   8.09550838E-05
  -6.30000010E-02   2.12702449E-04
  -5.20000011E-02  -3.16097203E-06
  -4.10000011E-02  -3.24807072E-04
  -2.99999993E-02  -1.85659053E-04
  -1.89999994E-02   3.76408891E-04
  -8.00000038E-03   4.37023904E-04
   3.00000003E-03  -2.38231005E-04
   1.40000004E-02  -6.03104185E-04
   2.50000004E-02  -3.52438292E-05
   3.59999985E-02   4.60618467E-04
   4.69999984E-02   2.12200364E-04
   5.79999983E-02  -1.20088378E-04
   6.89999983E-02  -1.72643238E-04
   7.99999982E-02  -1.30445740E-04
   9.09999982E-02   9.71041445E-05
  0.101999998       2.22849165E-04
  0.112999998      -9.66006628E-05
  0.123999998      -1.16887473E-04
  0.135000005       1.30137138E-04
  0.145999998      -2.38310502E-04
  0.157000005      -2.45440810E-04
  0.167999998       5.05509262E-04
  0.179000005       4.47555591E-04
  0.189999998      -6.36602344E-04
  0.201000005      -4.85314580E-04
  0.211999997       6.62083214E-04
  0.223000005       3.43119871E-04
  0.233999997      -4.61048621E-04
  0.245000005      -1.19297008E-04
  0.256000012      -2.73329060E-05
  0.266999990       7.76408488E-05
  0.277999997       1.99428760E-04
  0.289000005       3.78219032E-04
  0.300000012      -2.05882534E-04
  0.310999990      -9.98420524E-04
  0.321999997      -8.67482231E-05
  0.333000004       1.39209558E-03
  0.344000012       7.76351022E-04
  0.354999989      -1.40665763E-03
  0.365999997      -1.24246802E-03
  0.377000004       9.01270716E-04
  0.388000011       1.34877965E-03
  0.398999989      -3.43441003E-04
  0.409999996      -1.26653793E-03
  0.421000004      -2.79812230E-04
  0.432000011       1.21137244E-03
  0.442999989       9.19908751E-04
  0.453999996      -1.44455233E-03
  0.465000004      -1.37087854E-03
  0.476000011       1.48051360E-03
  0.486999989       1.77593110E-03
  0.497999996      -2.40453999E-04
  0.509000003      -2.15046247E-03
  0.519999981      -1.08221080E-03
  0.531000018       9.19791579E-04
  0.541999996       1.43153954E-03
  0.552999973       7.52941647E-04
  0.564000010      -2.74276652E-04
  0.574999988      -7.32942484E-04
  0.586000025      -1.17629999E-03
  0.597000003      -5.24011615E-04
  0.607999980       1.30297570E-03
  0.619000018       1.26945833E-03
  0.629999995      -4.07907850E-04
  0.640999973      -1.13859179E-03
  0.652000010      -7.22173936E-05
  0.662999988       2.01757415E-04
  0.674000025       1.00073717E-04
  0.685000002       7.07112311E-04
  0.695999980       4.47427301E-04
  0.707000017      -1.25417765E-03
  0.717999995      -1.07479026E-03
  0.728999972       6.78777986E-04
  0.740000010       1.62237627E-03
  0.750999987       5.48637530E-04
  0.762000024      -1.18597969E-03
  0.773000002      -1.34244550E-03
  0.783999979      -2.58537261E-06
  0.795000017       1.31196051E-03
  0.805999994       9.11740586E-04
  0.816999972      -7.75198452E-04
  0.828000009      -1.69493270E-03
  0.838999987      -1.86528574E-04
  0.850000024       1.79946993E-03
  0.861000001       1.18453731E-03
  0.871999979      -6.88650645E-04
  0.883000016      -9.36246710E-04
  0.893999994      -4.46081307E-04
  0.904999971      -4.42785589E-04
  0.916000009       7.34611065E-04
  0.926999986       1.27028546E-03
  0.938000023      -9.85726481E-04
  0.949000001      -1.82248454E-03
  0.959999979       1.33947202E-03
  0.971000016       2.72687641E-03
  0.981999993      -3.16014892E-04
  0.992999971      -2.38477276E-03
   1.00399995      -1.19654101E-03
   1.01499999       5.29591343E-05
   1.02600002       8.34541512E-04
   1.03699994       1.76280015E-03
   1.04799998       9.87473875E-04
   1.05900002      -1.25383621E-03
   1.07000005      -1.74238964E-03
   1.08099997      -3.90783243E-05
   1.09200001       1.17763842E-03
   1.10300004       5.14875283E-04
   1.11399996      -6.58107630E-04
   1.12500000      -5.36255888E-04
   1.13600004       3.38010053E-04
   1.14699996       2.95359729E-04
   1.15799999      -6.51428127E-05
   1.16900003       2.92092358E-04
   1.17999995       2.08647107E-04
   1.19099998      -5.23257302E-04
   1.20200002      -3.88912013E-04
   1.21300006       7.62369818E-05
   1.22399998      -1.00023135E-05
   1.23500001       4.31259279E-04
   1.24600005       7.36281858E-04
   1.25699997      -5.39215107E-04
   1.26800001      -1.27700227E-03
   1.27900004       5.86086981E-06
   1.28999996       9.70438530E-04
   1.30100000       7.13833724E-04
   1.31200004       2.39646615E-04
   1.32299995      -8.38203530E-04
   1.33399999      -1.45725696E-03
   1.34500003       3.51696362E-04
   1.35599995       2.05110898E-03
   1.36699998       5.23737399E-04
   1.37800002      -1.70375558E-03
   1.38900006      -1.37759664E-03
