 -0.800000012       0.00000000
 -0.788999975       0.00000000
 -0.777999997       0.00000000
 -0.767000020      -4.94067087E-23
 -0.755999982      -2.64425856E-15
 -0.745000005       8.59357277E-15
 -0.734000027       3.43628392E-14
 -0.722999990      -4.66737312E-14
 -0.712000012       1.74205021E-15
 -0.700999975       3.53896762E-13
 -0.689999998      -1.55956614E-13
 -0.679000020      -1.47470057E-12
 -0.667999983       2.24984704E-13
 -0.657000005       1.07770151E-12
 -0.646000028      -9.88714861E-13
 -0.634999990      -8.78177332E-14
 -0.624000013       3.62441637E-14
 -0.612999976      -2.22202053E-12
 -0.601999998       3.77595047E-12
 -0.591000021       6.18758647E-12
 -0.579999983      -7.21996378E-12
 -0.569000006      -9.09170135E-12
 -0.558000028       1.79463683E-11
 -0.546999991      -5.37997121E-12
 -0.536000013      -3.54587609E-11
 -0.524999976       4.95505061E-11
 -0.513999999       5.64168087E-11
 -0.503000021      -9.85738366E-11
 -0.492000014      -5.72763365E-11
 -0.481000006       1.31212638E-10
 -0.469999999       2.19368169E-11
 -0.458999991      -1.00766957E-10
 -0.448000014       1.23627955E-10
 -0.437000006      -4.89571439E-11
 -0.425999999      -5.00512964E-10
 -0.414999992       3.45267759E-10
 -0.404000014       8.37206804E-10
 -0.393000007      -7.23011928E-10
 -0.381999999      -3.93938715E-10
 -0.370999992       1.00774755E-09
 -0.360000014      -1.13147358E-09
 -0.349000007      -3.40499240E-10
 -0.338000000       2.67405653E-09
 -0.326999992      -2.62176592E-09
 -0.316000015      -1.85976334E-09
 -0.305000007       8.20421509E-09
 -0.294000000      -2.55015764E-09
 -0.282999992      -1.47656634E-08
 -0.272000015       8.80801743E-09
 -0.261000007       1.44466892E-08
 -0.250000000      -1.58056661E-08
 -0.238999993       5.73150771E-09
 -0.228000000       2.62163962E-08
 -0.216999993      -4.79046385E-08
 -0.206000000      -4.57888980E-08
 -0.194999993       8.00051225E-08
 -0.184000000       6.07929849E-08
 -0.172999993      -5.82288102E-08
 -0.162000000      -5.46365762E-08
 -0.150999993      -4.48514115E-08
 -0.140000001      -1.11301457E-08
 -0.128999993       1.05623464E-07
 -0.118000001       1.08634826E-08
 -0.107000001      -1.30794348E-07
  -9.60000008E-02   7.84066572E-08
  -8.50000009E-02   2.40616771E-07
  -7.40000010E-02   1.81244921E-08
  -6.30000010E-02  -2.44237611E-07
  -5.20000011E-02  -2.50426382E-07
  -4.10000011E-02   2.37489317E-09
  -2.99999993E-02   2.60317762E-07
  -1.89999994E-02   2.85992968E-07
  -8.00000038E-03  -3.57272611E-08
   3.00000003E-03  -1.59005509E-07
   1.40000004E-02  -1.13908655E-07
   2.50000004E-02  -2.41172955E-07
   3.59999985E-02  -1.44405846E-07
   4.69999984E-02   2.52475189E-07
   5.79999983E-02   2.76424657E-07
   6.89999983E-02  -3.16754154E-07
   7.99999982E-02  -3.52173942E-07
   9.09999982E-02   1.12887017E-06
  0.101999998       1.07901622E-06
  0.112999998      -1.40407496E-06
  0.123999998      -1.20942741E-06
  0.135000005       9.29119153E-07
  0.145999998      -4.71536445E-08
  0.157000005      -1.17086415E-06
  0.167999998       2.14407407E-07
  0.179000005       7.73641489E-07
  0.189999998       5.49495496E-07
  0.201000005       7.60736157E-07
  0.211999997      -1.63894853E-07
  0.223000005      -1.03071000E-06
  0.233999997       7.13192094E-07
  0.245000005       1.02530828E-06
  0.256000012      -1.29182649E-06
  0.266999990      -5.89559988E-07
  0.277999997      -2.51402042E-07
  0.289000005      -1.71109753E-06
  0.300000012       2.29567490E-06
  0.310999990       4.27196528E-06
  0.321999997      -4.38676852E-06
  0.333000004      -4.53735447E-06
  0.344000012       6.62828370E-06
  0.354999989       1.20255629E-06
  0.365999997      -8.74454054E-06
  0.377000004       2.37363543E-06
  0.388000011       7.58896249E-06
  0.398999989      -5.29702857E-06
  0.409999996      -4.84708926E-06
  0.421000004       8.24344625E-06
  0.432000011       5.24131565E-06
  0.442999989      -5.90704849E-06
  0.453999996      -4.79897562E-06
  0.465000004       9.75379407E-07
  0.476000011       2.99968906E-06
  0.486999989      -4.59204415E-07
  0.497999996      -3.08008703E-06
  0.509000003       2.93691232E-06
  0.519999981       3.07077789E-06
  0.531000018      -7.08886864E-06
  0.541999996      -2.12060149E-06
  0.552999973       1.11612962E-05
  0.564000010       1.89394612E-07
  0.574999988      -1.24672106E-05
  0.586000025       1.96981523E-06
  0.597000003       7.98762176E-06
  0.607999980      -6.04413799E-06
  0.619000018      -2.54031579E-06
  0.629999995       8.65850780E-06
  0.640999973       2.47076173E-07
  0.652000010      -6.90602064E-06
  0.662999988       1.26427483E-06
  0.674000025       6.88247519E-06
  0.685000002       3.24747384E-06
  0.695999980      -6.25892335E-06
  0.707000017      -1.16011370E-05
  0.717999995       4.86093222E-06
  0.728999972       1.69805971E-05
  0.740000010      -3.61292336E-06
  0.750999987      -1.28527818E-05
  0.762000024       6.60210844E-06
  0.773000002       2.44044236E-06
  0.783999979      -1.22063975E-05
  0.795000017       7.55422343E-06
  0.805999994       1.60453292E-05
  0.816999972      -1.22683778E-05
  0.828000009      -1.70361345E-05
  0.838999987       4.97438123E-06
  0.850000024       3.85833346E-06
  0.861000001      -1.63378195E-06
  0.871999979       9.60219586E-06
  0.883000016       3.85214935E-06
  0.893999994      -1.26167397E-05
  0.904999971      -5.52716210E-06
  0.916000009       9.62004469E-06
  0.926999986       9.24325104E-06
  0.938000023      -5.60342031E-08
  0.949000001      -8.20882178E-06
  0.959999979      -5.33517641E-06
  0.971000016       4.08198775E-06
  0.981999993       1.81455323E-06
  0.992999971      -2.23399957E-06
   1.00399995       4.41031671E-06
   1.01499999       7.59124021E-07
   1.02600002      -9.42871520E-06
   1.03699994       2.16379590E-06
   1.04799998       1.10054698E-05
   1.05900002      -5.39858911E-06
   1.07000005      -7.38347671E-06
   1.08099997       8.48882337E-06
   1.09200001       6.67735890E-07
   1.10300004      -9.90468106E-06
   1.11399996       6.46766875E-06
   1.12500000       1.04036535E-05
   1.13600004      -1.04451556E-05
   1.14699996      -1.19983843E-05
   1.15799999       4.42223973E-06
   1.16900003       6.50770335E-06
   1.17999995       1.61435048E-06
   1.19099998       2.00413979E-06
   1.20200002       1.19906929E-06
   1.21300006       6.35089748E-07
   1.22399998      -1.04536934E-06
   1.23500001      -6.85648001E-06
   1.24600005      -2.59556782E-06
   1.25699997       8.85480495E-06
   1.26800001       3.63451613E-06
   1.27900004      -7.61067668E-06
   1.28999996      -1.35816845E-06
   1.30100000       4.50784819E-06
   1.31200004      -3.91013373E-06
   1.32299995      -3.57052090E-06
   1.33399999       6.75738329E-06
   1.34500003       3.81440941E-06
   1.35599995      -3.35513641E-06
   1.36699998       1.46713455E-06
   1.37800002       2.01128205E-06
   1.38900006      -6.69338579E-06
