 -0.800000012       0.00000000
 -0.788999975       0.00000000
 -0.777999997       0.00000000
 -0.767000020       0.00000000
 -0.755999982      -1.02142304E-08
 -0.745000005      -1.74051795E-08
 -0.734000027       1.19546527E-07
 -0.722999990       5.92803993E-08
 -0.712000012      -3.89694463E-07
 -0.700999975       3.99848794E-08
 -0.689999998       7.35097615E-07
 -0.679000020      -5.45820569E-07
 -0.667999983      -7.39740926E-07
 -0.657000005       1.60173147E-06
 -0.646000028      -1.63571372E-07
 -0.634999990      -2.58714431E-06
 -0.624000013       2.99213752E-06
 -0.612999976       3.23626705E-06
 -0.601999998      -7.10856693E-06
 -0.591000021      -2.74267131E-06
 -0.579999983       1.02252934E-05
 -0.569000006      -1.52256590E-07
 -0.558000028      -9.27292604E-06
 -0.546999991       8.05814580E-06
 -0.536000013       7.02892385E-06
 -0.524999976      -1.49990819E-05
 -0.513999999      -1.52497307E-06
 -0.503000021       1.77857492E-05
 -0.492000014      -5.84056852E-06
 -0.481000006      -1.28154688E-05
 -0.469999999       1.53561541E-05
 -0.458999991       6.40631742E-06
 -0.448000014      -1.32372015E-05
 -0.437000006       1.34330967E-05
 -0.425999999       1.67823455E-05
 -0.414999992      -1.81789910E-05
 -0.404000014      -1.97003676E-08
 -0.393000007       3.15827965E-05
 -0.381999999       1.22436393E-06
 -0.370999992      -8.27847146E-07
 -0.360000014       4.89635386E-05
 -0.349000007       3.23654422E-05
 -0.338000000      -3.71118517E-06
 -0.326999992       5.42302623E-05
 -0.316000015       1.01338796E-04
 -0.305000007       6.94316550E-05
 -0.294000000       9.31536488E-05
 -0.282999992       1.73775989E-04
 -0.272000015       1.92776453E-04
 -0.261000007       2.26083605E-04
 -0.250000000       3.51905823E-04
 -0.238999993       4.52996726E-04
 -0.228000000       5.22704737E-04
 -0.216999993       6.91849447E-04
 -0.206000000       9.16155579E-04
 -0.194999993       1.12245360E-03
 -0.184000000       1.41939358E-03
 -0.172999993       1.82663265E-03
 -0.162000000       2.23627361E-03
 -0.150999993       2.72485404E-03
 -0.140000001       3.40953190E-03
 -0.128999993       4.18928033E-03
 -0.118000001       5.02504501E-03
 -0.107000001       6.06724247E-03
  -9.60000008E-02   7.31498469E-03
  -8.50000009E-02   8.65205564E-03
  -7.40000010E-02   1.01632429E-02
  -6.30000010E-02   1.19468328E-02
  -5.20000011E-02   1.38814524E-02
  -4.10000011E-02   1.59035306E-02
  -2.99999993E-02   1.81179959E-02
  -1.89999994E-02   2.04982366E-02
  -8.00000038E-03   2.28936002E-02
   3.00000003E-03   2.52754446E-02
   1.40000004E-02   2.76197866E-02
   2.50000004E-02   2.97483634E-02
   3.59999985E-02   3.15134339E-02
   4.69999984E-02   3.28483805E-02
   5.79999983E-02   3.35571356E-02
   6.89999983E-02   3.33651267E-02
   7.99999982E-02   3.21014002E-02
   9.09999982E-02   2.95608751E-02
  0.101999998       2.54063904E-02
  0.112999998       1.93821397E-02
  0.123999998       1.13129644E-02
  0.135000005       8.82181572E-04
  0.145999998      -1.22250458E-02
  0.157000005      -2.81087514E-02
  0.167999998      -4.68773730E-02
  0.179000005      -6.87421784E-02
  0.189999998      -9.37075913E-02
  0.201000005     -0.121578537
  0.211999997     -0.152230337
  0.223000005     -0.185438514
  0.233999997     -0.220660299
  0.245000005     -0.257278681
  0.256000012     -0.294693321
  0.266999990     -0.332058847
  0.277999997     -0.368331999
  0.289000005     -0.402494758
  0.300000012     -0.433436692
  0.310999990     -0.459880203
  0.321999997     -0.480605215
  0.333000004     -0.494486928
  0.344000012     -0.500364363
  0.354999989     -0.497169167
  0.365999997     -0.484088659
  0.377000004     -0.460484833
  0.388000011     -0.425895780
  0.398999989     -0.380210847
  0.409999996     -0.323673338
  0.421000004     -0.256765842
  0.432000011     -0.180288300
  0.442999989      -9.54605043E-02
  0.453999996      -3.80870048E-03
  0.465000004       9.29338783E-02
  0.476000011      0.192768127
  0.486999989      0.293474734
  0.497999996      0.392782211
  0.509000003      0.488387018
  0.519999981      0.577941954
  0.531000018      0.659233034
  0.541999996      0.730306387
  0.552999973      0.789423406
  0.564000010      0.835124731
  0.574999988      0.866371930
  0.586000025      0.882516682
  0.597000003      0.883273184
  0.607999980      0.868831515
  0.619000018      0.839848101
  0.629999995      0.797302723
  0.640999973      0.742483318
  0.652000010      0.677022994
  0.662999988      0.602804005
  0.674000025      0.521833658
  0.685000002      0.436199635
  0.695999980      0.348034352
  0.707000017      0.259426922
  0.717999995      0.172312766
  0.728999972       8.84457901E-02
  0.740000010       9.42947902E-03
  0.750999987      -6.33734614E-02
  0.762000024     -0.128958195
  0.773000002     -0.186595187
  0.783999979     -0.235752657
  0.795000017     -0.276204616
  0.805999994     -0.308025390
  0.816999972     -0.331444770
  0.828000009     -0.346883267
  0.838999987     -0.354997873
  0.850000024     -0.356517255
  0.861000001     -0.352193475
  0.871999979     -0.342902154
  0.883000016     -0.329533100
  0.893999994     -0.312880337
  0.904999971     -0.293772608
  0.916000009     -0.273036569
  0.926999986     -0.251292229
  0.938000023     -0.229075998
  0.949000001     -0.207003206
  0.959999979     -0.185538784
  0.971000016     -0.164911240
  0.981999993     -0.145395324
  0.992999971     -0.127285734
   1.00399995     -0.110633902
   1.01499999      -9.54151005E-02
   1.02600002      -8.17461088E-02
   1.03699994      -6.96432590E-02
   1.04799998      -5.89286350E-02
   1.05900002      -4.95192111E-02
   1.07000005      -4.14084531E-02
   1.08099997      -3.44323143E-02
   1.09200001      -2.84193251E-02
   1.10300004      -2.33358406E-02
   1.11399996      -1.90720204E-02
   1.12500000      -1.54365068E-02
   1.13600004      -1.23778665E-02
   1.14699996      -9.86562576E-03
   1.15799999      -7.74780987E-03
   1.16900003      -5.96036343E-03
   1.17999995      -4.53396561E-03
   1.19099998      -3.35725467E-03
   1.20200002      -2.32181977E-03
   1.21300006      -1.51173770E-03
   1.22399998      -9.32787138E-04
   1.23500001      -4.27153573E-04
   1.24600005       8.30881902E-07
   1.25699997       2.41688089E-04
   1.26800001       3.86380940E-04
   1.27900004       5.36897162E-04
   1.28999996       5.92657540E-04
   1.30100000       5.29746118E-04
   1.31200004       4.82823671E-04
   1.32299995       4.45191865E-04
   1.33399999       3.21454456E-04
   1.34500003       1.74406669E-04
   1.35599995       6.93191760E-05
   1.36699998      -6.30033246E-05
   1.37800002      -2.21584283E-04
   1.38900006      -3.30116891E-04
