 -0.959999979       0.00000000
 -0.925000012       1.18841979E-06
 -0.889999986       1.24819308E-05
 -0.855000019      -4.90194770E-06
 -0.819999993       1.44862443E-05
 -0.785000026       5.94254161E-05
 -0.750000000       6.74794064E-05
 -0.714999974       2.02411087E-04
 -0.680000007       3.02691013E-04
 -0.644999981       2.14543994E-04
 -0.610000014       7.01385899E-04
 -0.574999988       1.64846459E-03
 -0.540000021       1.64270611E-03
 -0.504999995       1.36557000E-03
 -0.469999999       2.23532389E-03
 -0.435000002       2.40137218E-03
 -0.400000006       8.98277387E-04
 -0.365000010       9.08520306E-04
 -0.330000013       4.20340057E-03
 -0.294999987       1.24336518E-02
 -0.259999990       3.51000465E-02
 -0.224999994       8.54995623E-02
 -0.189999998      0.173965797
 -0.155000001      0.311878115
 -0.119999997      0.506936491
  -8.50000009E-02  0.744901478
  -5.00000007E-02  0.982806087
  -1.49999997E-02   1.15223849
   1.99999996E-02   1.15845191
   5.49999997E-02  0.894923747
   9.00000036E-02  0.283503324
  0.125000000     -0.687984824
  0.159999996      -1.94382119
  0.194999993      -3.30799174
  0.230000004      -4.52055264
  0.264999986      -5.29594994
  0.300000012      -5.39330435
  0.335000008      -4.67231512
  0.370000005      -3.13341451
  0.405000001     -0.928067923
  0.439999998       1.67331803
  0.474999994       4.33437300
  0.509999990       6.70151091
  0.545000017       8.45225143
  0.579999983       9.33929920
  0.615000010       9.21668720
  0.649999976       8.05048847
  0.685000002       5.92406750
  0.720000029       3.03409076
  0.754999995     -0.323092073
  0.790000021      -3.77063274
  0.824999988      -6.87744188
  0.860000014      -9.19985199
  0.894999981      -10.3497648
  0.930000007      -10.0856180
  0.964999974      -8.40070534
   1.00000000      -5.57127285
   1.03499997      -2.13323760
   1.07000005       1.22939658
   1.10500002       3.86751556
   1.13999999       5.35368299
   1.17499995       5.59458828
   1.21000004       4.82623720
   1.24500000       3.49600267
   1.27999997       2.07965422
   1.31500006      0.917413652
   1.35000002      0.141608447
   1.38499999     -0.289497286
   1.41999996     -0.492791086
   1.45500004     -0.562226117
   1.49000001     -0.525502026
   1.52499998     -0.369974703
   1.55999994     -0.108187251
   1.59500003      0.173737496
   1.63000000      0.329339325
