 -0.959999979       0.00000000
 -0.925000012       5.77609571E-23
 -0.889999986      -2.55151206E-13
 -0.855000019      -2.12913468E-13
 -0.819999993       2.79642975E-12
 -0.785000026       7.25906618E-12
 -0.750000000       1.49577416E-11
 -0.714999974       2.29035523E-11
 -0.680000007      -8.71931138E-11
 -0.644999981       2.68171978E-11
 -0.610000014      -1.93265168E-10
 -0.574999988      -2.42901227E-10
 -0.540000021      -1.84480417E-10
 -0.504999995      -1.80810633E-09
 -0.469999999      -7.25365948E-11
 -0.435000002       2.49216292E-09
 -0.400000006      -3.32290778E-10
 -0.365000010       4.85869844E-10
 -0.330000013       7.95324873E-09
 -0.294999987       2.35221931E-09
 -0.259999990      -1.33511975E-08
 -0.224999994       6.95921232E-09
 -0.189999998      -2.59499799E-08
 -0.155000001      -5.52191501E-08
 -0.119999997       2.29365149E-08
  -8.50000009E-02   6.62844002E-08
  -5.00000007E-02   3.63926098E-08
  -1.49999997E-02   4.45272299E-08
   1.99999996E-02  -3.74329794E-08
   5.49999997E-02  -8.09416036E-08
   9.00000036E-02   1.78062649E-07
  0.125000000      -6.39425224E-08
  0.159999996      -3.82365073E-07
  0.194999993       9.41561922E-08
  0.230000004       2.53766189E-07
  0.264999986      -2.10102982E-07
  0.300000012      -1.95849079E-08
  0.335000008       5.57398948E-07
  0.370000005       1.39618152E-07
  0.405000001      -4.49826132E-07
  0.439999998      -4.61987923E-07
  0.474999994      -1.65881261E-07
  0.509999990       3.30616217E-07
  0.545000017       1.30576339E-07
  0.579999983      -2.40204770E-07
  0.615000010       4.84573093E-07
  0.649999976       4.86744966E-07
  0.685000002      -7.71245595E-07
  0.720000029      -5.06825927E-07
  0.754999995       7.36208221E-07
  0.790000021       2.00726305E-07
  0.824999988      -2.48803730E-07
  0.860000014       7.12052270E-07
  0.894999981       4.83149563E-07
  0.930000007      -4.77683443E-07
  0.964999974      -3.17322048E-07
   1.00000000      -1.30344205E-07
   1.03499997      -6.19665400E-07
   1.07000005      -5.75822867E-07
   1.10500002       5.60125279E-08
   1.13999999       3.23524574E-07
   1.17499995       2.03969215E-08
   1.21000004      -1.97233035E-07
   1.24500000       3.44358767E-07
   1.27999997       7.47170418E-07
   1.31500006       1.41726675E-08
   1.35000002      -5.14987335E-07
   1.38499999      -4.11163263E-08
   1.41999996       1.35187674E-08
   1.45500004      -2.36352804E-07
   1.49000001       2.58502155E-07
   1.52499998       1.88024188E-07
   1.55999994      -6.49876711E-07
   1.59500003      -1.15678333E-07
   1.63000000       9.35401658E-07
