 -0.800000012       0.00000000
 -0.788999975       0.00000000
 -0.777999997       0.00000000
 -0.767000020       0.00000000
 -0.755999982       0.00000000
 -0.745000005      -1.86506257E-12
 -0.734000027      -4.50966382E-11
 -0.722999990       2.12333082E-10
 -0.712000012      -2.37531272E-10
 -0.700999975      -8.19547319E-10
 -0.689999998       2.09493844E-09
 -0.679000020       8.22950263E-10
 -0.667999983      -6.75424516E-09
 -0.657000005       2.54648480E-09
 -0.646000028       1.23074582E-08
 -0.634999990      -1.18395054E-08
 -0.624000013      -1.14144978E-08
 -0.612999976       2.39219258E-08
 -0.601999998      -6.07151485E-09
 -0.591000021      -2.65174052E-08
 -0.579999983       4.08636396E-08
 -0.569000006       3.00010350E-10
 -0.558000028      -7.16043687E-08
 -0.546999991       6.70545290E-08
 -0.536000013       5.32597895E-08
 -0.524999976      -1.63386929E-07
 -0.513999999       5.30553237E-08
 -0.503000021       2.26932102E-07
 -0.492000014      -2.49595900E-07
 -0.481000006      -1.55339137E-07
 -0.469999999       4.83181168E-07
 -0.458999991      -1.40715557E-07
 -0.448000014      -6.68455812E-07
 -0.437000006       6.15135036E-07
 -0.425999999       6.63178355E-07
 -0.414999992      -1.08623863E-06
 -0.404000014      -3.22916321E-07
 -0.393000007       1.33434548E-06
 -0.381999999      -3.66008805E-07
 -0.370999992      -1.21836581E-06
 -0.360000014       1.13773865E-06
 -0.349000007       5.90337550E-07
 -0.338000000      -1.76459218E-06
 -0.326999992       3.41206061E-07
 -0.316000015       1.95425332E-06
 -0.305000007      -9.94900233E-07
 -0.294000000      -7.10604922E-07
 -0.282999992       2.96163648E-06
 -0.272000015       1.84947487E-06
 -0.261000007       1.21539088E-07
 -0.250000000       3.60574109E-06
 -0.238999993       5.54063308E-06
 -0.228000000       5.00281976E-06
 -0.216999993       9.11558163E-06
 -0.206000000       1.40461179E-05
 -0.194999993       1.58613639E-05
 -0.184000000       2.23565257E-05
 -0.172999993       3.36738121E-05
 -0.162000000       4.29806314E-05
 -0.150999993       5.61989254E-05
 -0.140000001       7.84531658E-05
 -0.128999993       1.02843005E-04
 -0.118000001       1.32467379E-04
 -0.107000001       1.77670430E-04
  -9.60000008E-02   2.33482002E-04
  -8.50000009E-02   2.96958373E-04
  -7.40000010E-02   3.82670580E-04
  -6.30000010E-02   4.95903951E-04
  -5.20000011E-02   6.29464805E-04
  -4.10000011E-02   7.92185718E-04
  -2.99999993E-02   9.99586773E-04
  -1.89999994E-02   1.25158287E-03
  -8.00000038E-03   1.55063916E-03
   3.00000003E-03   1.91373355E-03
   1.40000004E-02   2.35206308E-03
   2.50000004E-02   2.86894361E-03
   3.59999985E-02   3.47574940E-03
   4.69999984E-02   4.18837788E-03
   5.79999983E-02   5.01859933E-03
   6.89999983E-02   5.97604038E-03
   7.99999982E-02   7.06895627E-03
   9.09999982E-02   8.30710493E-03
  0.101999998       9.70254652E-03
  0.112999998       1.12583674E-02
  0.123999998       1.29699381E-02
  0.135000005       1.48393875E-02
  0.145999998       1.68642979E-02
  0.157000005       1.90213397E-02
  0.167999998       2.12846603E-02
  0.179000005       2.36349776E-02
  0.189999998       2.60329228E-02
  0.201000005       2.84162275E-02
  0.211999997       3.07254177E-02
  0.223000005       3.28966863E-02
  0.233999997       3.48381400E-02
  0.245000005       3.64406481E-02
  0.256000012       3.75956222E-02
  0.266999990       3.81847620E-02
  0.277999997       3.80682237E-02
  0.289000005       3.70931365E-02
  0.300000012       3.51058505E-02
  0.310999990       3.19519117E-02
  0.321999997       2.74688248E-02
  0.333000004       2.14896724E-02
  0.344000012       1.38610816E-02
  0.354999989       4.45040409E-03
  0.365999997      -6.86394516E-03
  0.377000004      -2.01868173E-02
  0.388000011      -3.55812870E-02
  0.398999989      -5.30614667E-02
  0.409999996      -7.26034269E-02
  0.421000004      -9.41336975E-02
  0.432000011     -0.117501393
  0.442999989     -0.142480135
  0.453999996     -0.168785736
  0.465000004     -0.196057931
  0.476000011     -0.223833457
  0.486999989     -0.251569688
  0.497999996     -0.278673410
  0.509000003     -0.304477602
  0.519999981     -0.328231126
  0.531000018     -0.349150002
  0.541999996     -0.366449088
  0.552999973     -0.379327506
  0.564000010     -0.386987835
  0.574999988     -0.388695449
  0.586000025     -0.383805692
  0.597000003     -0.371771306
  0.607999980     -0.352175325
  0.619000018     -0.324770510
  0.629999995     -0.289502084
  0.640999973     -0.246522233
  0.652000010     -0.196198300
  0.662999988     -0.139120445
  0.674000025      -7.61099309E-02
  0.685000002      -8.20467342E-03
  0.695999980       6.33728430E-02
  0.707000017      0.137232885
  0.717999995      0.211842760
  0.728999972      0.285588354
  0.740000010      0.356829226
  0.750999987      0.423924655
  0.762000024      0.485286295
  0.773000002      0.539460957
  0.783999979      0.585173488
  0.795000017      0.621339560
  0.805999994      0.647115529
  0.816999972      0.661954343
  0.828000009      0.665610135
  0.838999987      0.658121884
  0.850000024      0.639824808
  0.861000001      0.611347020
  0.871999979      0.573574722
  0.883000016      0.527612209
  0.893999994      0.474744081
  0.904999971      0.416388035
  0.916000009      0.354046971
  0.926999986      0.289261937
  0.938000023      0.223554209
  0.949000001      0.158372611
  0.959999979       9.50622112E-02
  0.971000016       3.48350070E-02
  0.981999993      -2.12673303E-02
  0.992999971      -7.23989233E-02
   1.00399995     -0.117913306
   1.01499999     -0.157359764
   1.02600002     -0.190484881
   1.03699994     -0.217229888
   1.04799998     -0.237708420
   1.05900002     -0.252176076
   1.07000005     -0.261013657
   1.08099997     -0.264708608
   1.09200001     -0.263817877
   1.10300004     -0.258937716
   1.11399996     -0.250694126
   1.12500000     -0.239721775
   1.13600004     -0.226628348
   1.14699996     -0.211980447
   1.15799999     -0.196307659
   1.16900003     -0.180091307
   1.17999995     -0.163742229
   1.19099998     -0.147599071
   1.20200002     -0.131946146
   1.21300006     -0.117018722
   1.22399998     -0.102986678
   1.23500001      -8.99515003E-02
   1.24600005      -7.79759884E-02
   1.25699997      -6.71036392E-02
   1.26800001      -5.73386401E-02
   1.27900004      -4.86363061E-02
   1.28999996      -4.09388021E-02
   1.30100000      -3.42001691E-02
   1.31200004      -2.83596478E-02
   1.32299995      -2.33244915E-02
   1.33399999      -1.90066881E-02
   1.34500003      -1.53465187E-02
   1.35599995      -1.22781005E-02
   1.36699998      -9.71238781E-03
   1.37800002      -7.57839577E-03
   1.38900006      -5.83745586E-03
