 -0.800000012       0.00000000
 -0.788999975       0.00000000
 -0.777999997      -1.47472692E-08
 -0.767000020       6.94914846E-08
 -0.755999982       6.12896756E-08
 -0.745000005      -5.78375079E-07
 -0.734000027       2.25851942E-08
 -0.722999990       2.35762582E-06
 -0.712000012      -7.74820649E-07
 -0.700999975      -5.84531472E-06
 -0.689999998       3.80676443E-06
 -0.679000020       1.01818441E-05
 -0.667999983      -1.24689295E-05
 -0.657000005      -1.48579575E-05
 -0.646000028       2.90590724E-05
 -0.634999990       2.27428045E-05
 -0.624000013      -4.53930661E-05
 -0.612999976      -3.21683801E-05
 -0.601999998       4.50092011E-05
 -0.591000021       2.70331348E-05
 -0.579999983      -2.82722285E-05
 -0.569000006       3.84002942E-06
 -0.558000028       2.28804020E-05
 -0.546999991      -2.75508410E-05
 -0.536000013      -2.94040801E-05
 -0.524999976       1.24387725E-05
 -0.513999999       1.88751019E-05
 -0.503000021       1.18759272E-05
 -0.492000014      -2.01228959E-05
 -0.481000006      -3.70219204E-05
 -0.469999999       8.52545199E-05
 -0.458999991       1.51044500E-04
 -0.448000014      -9.21220271E-05
 -0.437000006      -2.93024961E-04
 -0.425999999      -1.10459368E-04
 -0.414999992       8.27894255E-05
 -0.404000014       2.65531762E-05
 -0.393000007      -1.26350287E-05
 -0.381999999      -5.68608266E-05
 -0.370999992      -2.70048593E-04
 -0.360000014      -3.34431941E-04
 -0.349000007      -1.56227921E-04
 -0.338000000      -2.04389449E-04
 -0.326999992      -5.62194095E-04
 -0.316000015      -8.80422071E-04
 -0.305000007      -1.08579255E-03
 -0.294000000      -1.19343563E-03
 -0.282999992      -1.24595326E-03
 -0.272000015      -1.66189997E-03
 -0.261000007      -2.57082423E-03
 -0.250000000      -3.41506954E-03
 -0.238999993      -4.03259927E-03
 -0.228000000      -4.90451930E-03
 -0.216999993      -6.12575002E-03
 -0.206000000      -7.54106371E-03
 -0.194999993      -9.40410141E-03
 -0.184000000      -1.17654819E-02
 -0.172999993      -1.41988713E-02
 -0.162000000      -1.67045221E-02
 -0.150999993      -1.97488088E-02
 -0.140000001      -2.34103072E-02
 -0.128999993      -2.74269581E-02
 -0.118000001      -3.17257978E-02
 -0.107000001      -3.63434590E-02
  -9.60000008E-02  -4.12424095E-02
  -8.50000009E-02  -4.63761650E-02
  -7.40000010E-02  -5.16724773E-02
  -6.30000010E-02  -5.70401773E-02
  -5.20000011E-02  -6.24236763E-02
  -4.10000011E-02  -6.76569268E-02
  -2.99999993E-02  -7.24087209E-02
  -1.89999994E-02  -7.64759928E-02
  -8.00000038E-03  -7.99285620E-02
   3.00000003E-03  -8.28203708E-02
   1.40000004E-02  -8.50183144E-02
   2.50000004E-02  -8.64738896E-02
   3.59999985E-02  -8.73799697E-02
   4.69999984E-02  -8.79231840E-02
   5.79999983E-02  -8.82976651E-02
   6.89999983E-02  -8.91409591E-02
   7.99999982E-02  -9.14968550E-02
   9.09999982E-02  -9.62751731E-02
  0.101999998     -0.104261473
  0.112999998     -0.116593979
  0.123999998     -0.134728283
  0.135000005     -0.160108313
  0.145999998     -0.194240913
  0.157000005     -0.238748193
  0.167999998     -0.294960469
  0.179000005     -0.363673270
  0.189999998     -0.445423484
  0.201000005     -0.540562272
  0.211999997     -0.648751497
  0.223000005     -0.768640637
  0.233999997     -0.898081541
  0.245000005      -1.03413808
  0.256000012      -1.17275822
  0.266999990      -1.30884552
  0.277999997      -1.43648767
  0.289000005      -1.54878104
  0.300000012      -1.63795066
  0.310999990      -1.69603086
  0.321999997      -1.71509433
  0.333000004      -1.68709612
  0.344000012      -1.60431135
  0.354999989      -1.46003819
  0.365999997      -1.24907708
  0.377000004     -0.968303561
  0.388000011     -0.616954803
  0.398999989     -0.196476191
  0.409999996      0.289080173
  0.421000004      0.832400143
  0.432000011       1.42313087
  0.442999989       2.04819369
  0.453999996       2.69156384
  0.465000004       3.33483791
  0.476000011       3.95842695
  0.486999989       4.54183149
  0.497999996       5.06382132
  0.509000003       5.50378704
  0.519999981       5.84296465
  0.531000018       6.06474876
  0.541999996       6.15538073
  0.552999973       6.10518789
  0.564000010       5.90915680
  0.574999988       5.56687784
  0.586000025       5.08275986
  0.597000003       4.46638060
  0.607999980       3.73223877
  0.619000018       2.89891148
  0.629999995       1.98839760
  0.640999973       1.02567482
  0.652000010       3.77422199E-02
  0.662999988     -0.947746277
  0.674000025      -1.90347040
  0.685000002      -2.80329537
  0.695999980      -3.62350202
  0.707000017      -4.34365606
  0.717999995      -4.94692850
  0.728999972      -5.42071581
  0.740000010      -5.75731850
  0.750999987      -5.95392847
  0.762000024      -6.01227188
  0.773000002      -5.93835974
  0.783999979      -5.74212742
  0.795000017      -5.43683624
  0.805999994      -5.03828621
  0.816999972      -4.56398630
  0.828000009      -4.03250980
  0.838999987      -3.46279311
  0.850000024      -2.87317133
  0.861000001      -2.28075194
  0.871999979      -1.70121801
  0.883000016      -1.14829159
  0.893999994     -0.633158803
  0.904999971     -0.164592728
  0.916000009      0.250876009
  0.926999986      0.609246671
  0.938000023      0.908971846
  0.949000001       1.15035522
  0.959999979       1.33523405
  0.971000016       1.46696973
  0.981999993       1.55018640
  0.992999971       1.59021425
   1.00399995       1.59263766
   1.01499999       1.56325066
   1.02600002       1.50807798
   1.03699994       1.43291533
   1.04799998       1.34287393
   1.05900002       1.24260545
   1.07000005       1.13649297
   1.08099997       1.02823198
   1.09200001      0.920707583
   1.10300004      0.816413522
   1.11399996      0.717413664
   1.12500000      0.624975145
   1.13600004      0.539815545
   1.14699996      0.462565392
   1.15799999      0.393607140
   1.16900003      0.332756668
   1.17999995      0.279493630
   1.19099998      0.233350411
   1.20200002      0.193851128
   1.21300006      0.160291731
   1.22399998      0.131886050
   1.23500001      0.107987009
   1.24600005       8.79599079E-02
   1.25699997       7.10932836E-02
   1.26800001       5.68166114E-02
   1.27900004       4.47599292E-02
   1.28999996       3.45881358E-02
   1.30100000       2.60093696E-02
   1.31200004       1.88127887E-02
   1.32299995       1.27842790E-02
   1.33399999       7.77491927E-03
   1.34500003       3.75146256E-03
   1.35599995       6.25404820E-04
   1.36699998      -1.71210989E-03
   1.37800002      -3.23110539E-03
   1.38900006      -3.97253456E-03
