 -0.959999979       0.00000000
 -0.925000012       0.00000000
 -0.889999986      -1.63932185E-30
 -0.855000019       3.18616076E-28
 -0.819999993      -2.19127205E-27
 -0.785000026       5.98638299E-14
 -0.750000000      -4.47000699E-13
 -0.714999974      -1.22477375E-12
 -0.680000007      -1.60610466E-11
 -0.644999981       5.17059243E-11
 -0.610000014      -3.64866817E-12
 -0.574999988      -5.07560695E-11
 -0.540000021       1.31033712E-10
 -0.504999995       1.83089030E-10
 -0.469999999       1.65011171E-10
 -0.435000002      -3.63546609E-10
 -0.400000006      -4.24316138E-10
 -0.365000010       8.05568334E-10
 -0.330000013      -2.26649116E-10
 -0.294999987      -2.13644724E-09
 -0.259999990       9.32454114E-10
 -0.224999994       8.46771275E-09
 -0.189999998      -4.98530417E-09
 -0.155000001      -2.17501328E-09
 -0.119999997       6.71046330E-09
  -8.50000009E-02  -1.26015278E-08
  -5.00000007E-02  -1.68773227E-08
  -1.49999997E-02  -7.25757010E-10
   1.99999996E-02   5.11680742E-09
   5.49999997E-02   2.07143973E-08
   9.00000036E-02   2.32777317E-08
  0.125000000      -4.75557016E-09
  0.159999996      -7.10351911E-09
  0.194999993       3.21443361E-09
  0.230000004      -2.07097806E-08
  0.264999986      -8.24166779E-09
  0.300000012       1.07543852E-09
  0.335000008      -3.79871801E-10
  0.370000005      -5.97702554E-09
  0.405000001      -1.80297821E-08
  0.439999998       1.40619261E-09
  0.474999994       4.44006112E-08
  0.509999990      -2.15321911E-08
  0.545000017      -4.04270821E-08
  0.579999983       3.28362368E-08
  0.615000010      -1.87256397E-08
  0.649999976      -8.67541985E-08
  0.685000002       4.04384721E-08
  0.720000029       6.45771365E-08
  0.754999995      -4.34452971E-08
  0.790000021       4.18016803E-08
  0.824999988       4.44944561E-08
  0.860000014      -1.19215926E-07
  0.894999981      -6.22649523E-08
  0.930000007       5.87272559E-08
  0.964999974      -6.20364773E-08
   1.00000000      -5.88355640E-08
   1.03499997       1.24432745E-07
   1.07000005       7.23023241E-09
   1.10500002      -1.54035661E-07
   1.13999999      -9.37782385E-09
   1.17499995       6.02975589E-08
   1.21000004      -4.61689567E-08
   1.24500000       3.27750938E-09
   1.27999997       8.86152094E-08
   1.31500006       1.43497370E-09
   1.35000002      -4.74866972E-08
   1.38499999       1.14218937E-08
   1.41999996       2.20178276E-08
   1.45500004      -1.23339818E-08
   1.49000001      -2.35104398E-08
   1.52499998      -1.72389552E-08
   1.55999994      -1.83131554E-08
   1.59500003      -1.67113559E-08
   1.63000000       3.90912938E-08
