 -0.800000012       0.00000000
 -0.788999975       0.00000000
 -0.777999997       0.00000000
 -0.767000020       1.85918837E-24
 -0.755999982       8.77113867E-17
 -0.745000005      -1.40165047E-14
 -0.734000027      -7.12160060E-15
 -0.722999990       4.56015163E-14
 -0.712000012       6.18537272E-14
 -0.700999975      -2.28111339E-13
 -0.689999998      -3.21734094E-13
 -0.679000020      -3.63980954E-13
 -0.667999983       7.54423000E-13
 -0.657000005       3.45188017E-13
 -0.646000028      -7.83980465E-13
 -0.634999990       1.60682112E-12
 -0.624000013      -2.18207809E-12
 -0.612999976      -6.98825850E-12
 -0.601999998       1.91230105E-12
 -0.591000021       8.59889070E-12
 -0.579999983       7.66599674E-13
 -0.569000006      -1.22198313E-12
 -0.558000028      -5.68664820E-12
 -0.546999991       4.72713101E-12
 -0.536000013       2.10594996E-11
 -0.524999976      -2.38416700E-11
 -0.513999999      -2.12671825E-11
 -0.503000021       6.10979461E-11
 -0.492000014      -3.78304887E-11
 -0.481000006      -1.42858461E-10
 -0.469999999       1.35555581E-10
 -0.458999991       2.37981856E-10
 -0.448000014      -1.87919846E-10
 -0.437000006      -2.08670831E-10
 -0.425999999       2.24403982E-10
 -0.414999992      -1.50586710E-10
 -0.404000014      -2.55283628E-10
 -0.393000007       6.31789621E-10
 -0.381999999       2.23892516E-10
 -0.370999992      -6.71936340E-10
 -0.360000014       2.14795320E-10
 -0.349000007      -4.64075445E-10
 -0.338000000      -2.12281470E-10
 -0.326999992       4.27740243E-09
 -0.316000015      -1.95783190E-09
 -0.305000007      -9.76294778E-09
 -0.294000000       6.85144785E-09
 -0.282999992       9.65366276E-09
 -0.272000015      -1.27212578E-08
 -0.261000007       4.83592011E-09
 -0.250000000       1.72914945E-08
 -0.238999993      -3.71463358E-08
 -0.228000000      -2.52249688E-08
 -0.216999993       6.55806360E-08
 -0.206000000       2.89785191E-08
 -0.194999993      -5.11090761E-08
 -0.184000000       5.16144727E-09
 -0.172999993       2.91145819E-09
 -0.162000000      -6.60287043E-08
 -0.150999993       3.14061133E-08
 -0.140000001       9.85106894E-08
 -0.128999993      -5.56615376E-08
 -0.118000001      -9.23153110E-08
 -0.107000001       4.80221587E-08
  -9.60000008E-02   6.64551365E-08
  -8.50000009E-02   6.35381383E-08
  -7.40000010E-02   1.35965593E-07
  -6.30000010E-02  -1.18833050E-07
  -5.20000011E-02  -3.50242004E-07
  -4.10000011E-02   9.17256031E-08
  -2.99999993E-02   4.63472588E-07
  -1.89999994E-02   1.52713930E-08
  -8.00000038E-03  -3.01658673E-07
   3.00000003E-03  -1.75240615E-07
   1.40000004E-02  -3.34335084E-07
   2.50000004E-02  -2.29130464E-07
   3.59999985E-02   3.54278825E-07
   4.69999984E-02   7.03311343E-07
   5.79999983E-02   3.39936648E-08
   6.89999983E-02  -4.15774252E-07
   7.99999982E-02   1.96131907E-07
   9.09999982E-02   2.25870664E-07
  0.101999998      -3.66344750E-07
  0.112999998       1.30896879E-07
  0.123999998       7.24930032E-07
  0.135000005      -2.35050805E-07
  0.145999998      -1.32055300E-06
  0.157000005      -8.39495783E-07
  0.167999998       5.99785892E-07
  0.179000005       1.45861509E-06
  0.189999998       6.76632737E-07
  0.201000005      -1.37862173E-06
  0.211999997      -1.21156984E-06
  0.223000005       1.70762917E-06
  0.233999997       1.66378948E-06
  0.245000005      -2.17187562E-06
  0.256000012      -2.50950757E-06
  0.266999990       7.42721681E-07
  0.277999997       1.59233684E-06
  0.289000005       1.80695633E-06
  0.300000012       2.10087296E-06
  0.310999990      -7.74857654E-07
  0.321999997      -2.73877004E-06
  0.333000004      -1.87552587E-06
  0.344000012      -3.92496048E-07
  0.354999989       1.60014065E-06
  0.365999997       3.35336040E-06
  0.377000004       5.24580628E-07
  0.388000011      -4.51050937E-06
  0.398999989      -3.35181153E-06
  0.409999996       6.30704562E-07
  0.421000004       1.57704676E-06
  0.432000011       1.15932585E-06
  0.442999989       1.60189961E-06
  0.453999996       2.60582419E-06
  0.465000004       3.81716609E-06
  0.476000011       4.72396408E-07
  0.486999989      -5.45969760E-06
  0.497999996      -7.10395670E-06
  0.509000003      -1.87287549E-06
  0.519999981       4.59357670E-06
  0.531000018       3.58909688E-06
  0.541999996       1.78584048E-06
  0.552999973       3.39488474E-06
  0.564000010      -1.33912079E-06
  0.574999988      -8.21694357E-06
  0.586000025      -2.52698419E-06
  0.597000003       3.67558664E-06
  0.607999980      -3.82087137E-07
  0.619000018       1.50701703E-06
  0.629999995       4.52127779E-06
  0.640999973      -4.85360533E-06
  0.652000010      -6.01168267E-06
  0.662999988       5.59185219E-06
  0.674000025       2.81537382E-06
  0.685000002      -5.67806501E-06
  0.695999980       2.34416552E-06
  0.707000017       8.03826242E-06
  0.717999995      -6.83171095E-07
  0.728999972      -5.15044712E-06
  0.740000010      -2.04313181E-07
  0.750999987       4.01379384E-06
  0.762000024       2.45320336E-07
  0.773000002      -6.61643935E-06
  0.783999979      -3.65735644E-07
  0.795000017       9.82881920E-06
  0.805999994      -2.28074009E-06
  0.816999972      -1.57659251E-05
  0.828000009       1.84852775E-06
  0.838999987       1.63853310E-05
  0.850000024       7.01110594E-07
  0.861000001      -7.41940676E-06
  0.871999979       1.69129692E-06
  0.883000016      -1.56496264E-06
  0.893999994      -5.98314955E-06
  0.904999971       3.67567145E-06
  0.916000009       5.91727348E-06
  0.926999986      -9.62136937E-07
  0.938000023       1.42193721E-06
  0.949000001       2.44055491E-06
  0.959999979      -8.02472550E-06
  0.971000016      -9.98665473E-06
  0.981999993       4.44218631E-06
  0.992999971       1.34413731E-05
   1.00399995       2.52954965E-06
   1.01499999      -9.34991567E-06
   1.02600002      -3.49149605E-06
   1.03699994       3.98823886E-06
   1.04799998      -3.39369990E-06
   1.05900002      -8.40600205E-06
   1.07000005       3.02076978E-06
   1.08099997       1.24251155E-05
   1.09200001       5.44543309E-06
   1.10300004      -4.84652810E-06
   1.11399996      -4.88531487E-06
   1.12500000      -9.41786453E-08
   1.13600004      -2.16768126E-06
   1.14699996      -7.81243671E-06
   1.15799999      -5.63728349E-07
   1.16900003       1.46612938E-05
   1.17999995       1.17348191E-05
   1.19099998      -5.84050531E-06
   1.20200002      -1.14066479E-05
   1.21300006      -6.69838664E-06
   1.22399998      -3.09870757E-06
   1.23500001       4.89834338E-06
   1.24600005       9.13145232E-06
   1.25699997       2.69624593E-07
   1.26800001      -2.51657480E-06
   1.27900004       4.22100265E-06
   1.28999996      -1.82534359E-06
   1.30100000      -1.08805898E-05
   1.31200004       2.89469053E-08
   1.32299995       1.26650148E-05
   1.33399999       4.62350226E-06
   1.34500003      -9.06280729E-06
   1.35599995      -7.66365156E-06
   1.36699998       4.91625724E-06
   1.37800002       8.03935745E-06
   1.38900006      -4.61717445E-06
