 -0.959999979       0.00000000
 -0.925000012       2.30957067E-21
 -0.889999986      -3.44186553E-14
 -0.855000019      -3.87139892E-13
 -0.819999993       2.73317203E-13
 -0.785000026       2.55533463E-12
 -0.750000000       1.22029930E-11
 -0.714999974      -3.53797477E-11
 -0.680000007      -4.04586885E-11
 -0.644999981       1.17446608E-11
 -0.610000014       2.32776645E-10
 -0.574999988      -1.82106774E-10
 -0.540000021      -1.00831843E-10
 -0.504999995       1.20637644E-09
 -0.469999999       3.97829436E-10
 -0.435000002      -4.78554352E-09
 -0.400000006      -8.31868630E-10
 -0.365000010       6.66664812E-09
 -0.330000013       1.24728903E-08
 -0.294999987      -2.51999275E-08
 -0.259999990      -1.90167686E-08
 -0.224999994       6.06894375E-08
 -0.189999998       3.97690147E-09
 -0.155000001      -4.93486034E-08
 -0.119999997      -1.30837496E-09
  -8.50000009E-02  -5.85593938E-08
  -5.00000007E-02   8.18410086E-08
  -1.49999997E-02   2.20917116E-07
   1.99999996E-02  -1.80443593E-07
   5.49999997E-02  -3.64359380E-07
   9.00000036E-02   2.10340559E-07
  0.125000000       3.62397685E-07
  0.159999996      -1.58965221E-07
  0.194999993      -1.88907904E-07
  0.230000004       7.61977077E-08
  0.264999986       1.07673799E-07
  0.300000012       2.68732009E-07
  0.335000008       1.86925121E-07
  0.370000005      -4.22700822E-07
  0.405000001      -2.85177890E-07
  0.439999998       3.43914365E-07
  0.474999994      -3.54290336E-07
  0.509999990      -4.33862425E-07
  0.545000017       5.42438613E-07
  0.579999983       1.63721310E-07
  0.615000010       2.08977681E-07
  0.649999976       4.17036262E-07
  0.685000002      -7.60496562E-07
  0.720000029      -6.59614102E-07
  0.754999995       3.58610663E-07
  0.790000021       2.96752489E-08
  0.824999988       8.36052791E-08
  0.860000014      -1.91326663E-07
  0.894999981      -6.03472927E-07
  0.930000007       8.22317304E-07
  0.964999974       1.39829910E-06
   1.00000000      -3.35429490E-07
   1.03499997      -7.72046860E-07
   1.07000005       3.84892928E-07
   1.10500002      -1.23513291E-06
   1.13999999      -2.06026220E-06
   1.17499995       1.12586008E-06
   1.21000004       2.02342994E-06
   1.24500000       5.60367475E-10
   1.27999997       8.29158523E-07
   1.31500006       1.67152291E-06
   1.35000002      -1.54377278E-06
   1.38499999      -2.15460386E-06
   1.41999996       8.24702283E-07
   1.45500004      -2.31344274E-07
   1.49000001      -1.43231773E-06
   1.52499998       1.82835561E-06
   1.55999994       1.84324892E-06
   1.59500003      -1.98723342E-06
   1.63000000      -1.40365148E-06
