 -0.800000012       0.00000000
 -0.788999975       0.00000000
 -0.777999997       3.25323770E-20
 -0.767000020       6.71259773E-21
 -0.755999982       9.87919831E-16
 -0.745000005       6.33482578E-13
 -0.734000027      -1.59532142E-12
 -0.722999990      -4.50340421E-13
 -0.712000012      -8.80639420E-13
 -0.700999975       1.75390681E-12
 -0.689999998       8.48792011E-13
 -0.679000020      -4.18256494E-13
 -0.667999983      -1.35647537E-12
 -0.657000005       1.47574487E-12
 -0.646000028      -8.87813087E-12
 -0.634999990      -6.74307311E-12
 -0.624000013       1.36662860E-11
 -0.612999976       2.00329944E-11
 -0.601999998      -8.48685271E-12
 -0.591000021      -5.85148119E-12
 -0.579999983      -1.13916246E-11
 -0.569000006       5.28012009E-11
 -0.558000028      -1.49758941E-10
 -0.546999991       1.42278281E-11
 -0.536000013       2.03372957E-10
 -0.524999976      -2.67718125E-10
 -0.513999999      -8.19814008E-11
 -0.503000021       6.07300099E-10
 -0.492000014      -1.03829799E-10
 -0.481000006      -8.63135396E-11
 -0.469999999      -8.59900068E-11
 -0.458999991      -7.96562261E-10
 -0.448000014       4.42930442E-10
 -0.437000006       9.17346921E-10
 -0.425999999      -2.12491491E-09
 -0.414999992      -1.76720594E-09
 -0.404000014       2.73113554E-09
 -0.393000007      -1.23757193E-09
 -0.381999999       1.72608494E-09
 -0.370999992       4.91631491E-09
 -0.360000014      -1.88095228E-09
 -0.349000007      -6.32200825E-09
 -0.338000000       6.07602280E-09
 -0.326999992       4.05606349E-09
 -0.316000015      -1.63838312E-08
 -0.305000007       1.75406842E-10
 -0.294000000       1.47860959E-08
 -0.282999992      -5.68973935E-09
 -0.272000015       2.39020959E-09
 -0.261000007       1.77716402E-08
 -0.250000000      -6.25876728E-09
 -0.238999993      -1.12764695E-08
 -0.228000000       4.95484720E-09
 -0.216999993      -5.16643617E-10
 -0.206000000      -1.97832488E-08
 -0.194999993       3.33153860E-09
 -0.184000000       2.84339023E-08
 -0.172999993      -3.93338917E-09
 -0.162000000      -2.73299996E-08
 -0.150999993      -3.02803684E-08
 -0.140000001      -2.39310474E-08
 -0.128999993       3.68718425E-08
 -0.118000001       1.09777375E-07
 -0.107000001       2.31867769E-08
  -9.60000008E-02  -8.37267748E-08
  -8.50000009E-02   9.58314317E-10
  -7.40000010E-02   8.28373103E-08
  -6.30000010E-02   1.78960402E-08
  -5.20000011E-02   3.44516380E-08
  -4.10000011E-02   7.44305169E-08
  -2.99999993E-02  -8.53516227E-08
  -1.89999994E-02  -1.73664148E-07
  -8.00000038E-03   3.60942209E-09
   3.00000003E-03   4.19278905E-08
   1.40000004E-02  -2.69709965E-09
   2.50000004E-02   8.82027820E-08
   3.59999985E-02   7.96324642E-08
   4.69999984E-02  -1.14669618E-07
   5.79999983E-02  -1.04469159E-07
   6.89999983E-02   3.27669198E-08
   7.99999982E-02   2.02581187E-08
   9.09999982E-02   1.24933335E-08
  0.101999998       5.74178465E-08
  0.112999998       2.20473737E-08
  0.123999998      -6.21517557E-08
  0.135000005      -8.61224478E-08
  0.145999998       1.08812932E-08
  0.157000005       1.39520822E-07
  0.167999998       9.59539861E-08
  0.179000005      -6.17805043E-08
  0.189999998      -5.57089272E-08
  0.201000005      -1.82358946E-08
  0.211999997      -8.57710205E-08
  0.223000005      -6.94112998E-08
  0.233999997       4.89455907E-08
  0.245000005      -7.72960007E-08
  0.256000012      -1.74577664E-07
  0.266999990       5.46541372E-08
  0.277999997       1.95671305E-07
  0.289000005       7.79180169E-08
  0.300000012      -2.49980321E-08
  0.310999990      -1.19538257E-07
  0.321999997      -7.94833142E-08
  0.333000004       1.00271734E-07
  0.344000012       1.50949873E-07
  0.354999989       1.06501801E-07
  0.365999997       1.08891008E-07
  0.377000004      -4.37513883E-08
  0.388000011      -9.17680509E-08
  0.398999989       1.65157332E-09
  0.409999996      -7.34326946E-08
  0.421000004      -6.97413327E-08
  0.432000011       1.34922587E-07
  0.442999989       1.22220178E-09
  0.453999996      -2.75373537E-07
  0.465000004       1.65433995E-08
  0.476000011       3.63198836E-07
  0.486999989       8.76469031E-08
  0.497999996      -2.39903102E-07
  0.509000003      -2.59797417E-07
  0.519999981      -1.68897301E-07
  0.531000018       6.94804285E-08
  0.541999996       2.97529823E-07
  0.552999973       9.97736933E-08
  0.564000010      -1.50041899E-07
  0.574999988       6.20567731E-09
  0.586000025       6.40254854E-08
  0.597000003      -7.47612674E-08
  0.607999980       5.31840101E-08
  0.619000018       2.12956820E-07
  0.629999995       2.88333428E-08
  0.640999973      -1.97477789E-07
  0.652000010      -2.20886818E-07
  0.662999988      -8.72078232E-08
  0.674000025       1.65937251E-07
  0.685000002       2.69794072E-07
  0.695999980       3.69107340E-08
  0.707000017      -1.48022337E-07
  0.717999995      -1.26170704E-07
  0.728999972      -1.49634445E-07
  0.740000010      -7.47031379E-08
  0.750999987       1.80506760E-07
  0.762000024       1.66876859E-07
  0.773000002      -8.78959483E-08
  0.783999979      -7.55395533E-08
  0.795000017       1.35608822E-08
  0.805999994      -1.07139869E-07
  0.816999972      -2.98616065E-08
  0.828000009       2.38465219E-07
  0.838999987       1.26456641E-07
  0.850000024      -1.80959148E-07
  0.861000001      -1.49785620E-07
  0.871999979      -1.65538534E-08
  0.883000016      -7.38680157E-08
  0.893999994      -5.98335603E-08
  0.904999971       8.49157402E-08
  0.916000009       9.49240260E-08
  0.926999986      -2.89330373E-08
  0.938000023      -9.06081183E-08
  0.949000001      -2.06891730E-08
  0.959999979       3.25473088E-08
  0.971000016      -1.01190771E-07
  0.981999993      -1.50768031E-07
  0.992999971       1.51692959E-07
   1.00399995       2.60156753E-07
   1.01499999      -1.36510110E-07
   1.02600002      -2.45006760E-07
   1.03699994       1.13148346E-07
   1.04799998       8.42768557E-08
   1.05900002      -1.25676053E-07
   1.07000005       1.98981724E-07
   1.08099997       3.29838002E-07
   1.09200001      -2.04662939E-07
   1.10300004      -3.27094313E-07
   1.11399996       9.61237561E-08
   1.12500000       3.68069308E-08
   1.13600004      -1.46068487E-07
   1.14699996       2.47928284E-07
   1.15799999       3.25049371E-07
   1.16900003      -2.83880098E-07
   1.17999995      -3.88840164E-07
   1.19099998       1.58112840E-07
   1.20200002       2.58235730E-07
   1.21300006      -6.05601258E-08
   1.22399998      -3.09405017E-08
   1.23500001       1.40633503E-07
   1.24600005      -1.79193158E-08
   1.25699997      -1.78465427E-07
   1.26800001      -9.90169458E-09
   1.27900004       1.20361889E-07
   1.28999996      -6.82467629E-08
   1.30100000      -1.56822594E-07
   1.31200004       1.22972963E-07
   1.32299995       2.45540377E-07
   1.33399999      -5.21699626E-08
   1.34500003      -1.66261970E-07
   1.35599995       6.76594638E-08
   1.36699998       3.07298933E-08
   1.37800002      -2.04129464E-07
   1.38900006      -8.08709011E-09
