 -0.800000012       0.00000000
 -0.788999975       0.00000000
 -0.777999997       0.00000000
 -0.767000020       2.64550209E-12
 -0.755999982      -1.03339949E-12
 -0.745000005       4.13359798E-12
 -0.734000027       3.30687838E-11
 -0.722999990      -3.63756636E-10
 -0.712000012       6.77910061E-10
 -0.700999975       3.96825406E-10
 -0.689999998      -2.61243382E-09
 -0.679000020       2.04199746E-09
 -0.667999983       3.96825417E-09
 -0.657000005      -7.53968266E-09
 -0.646000028      -4.23280433E-09
 -0.634999990       2.18253966E-08
 -0.624000013      -1.04497353E-08
 -0.612999976      -2.77777783E-08
 -0.601999998       2.83068786E-08
 -0.591000021       2.11640216E-08
 -0.579999983      -2.11640216E-08
 -0.569000006      -2.48677257E-08
 -0.558000028      -4.07407406E-08
 -0.546999991       1.01190480E-07
 -0.536000013       1.05291008E-07
 -0.524999976      -2.26455029E-07
 -0.513999999      -1.65873018E-07
 -0.503000021       4.12698427E-07
 -0.492000014       1.62500001E-07
 -0.481000006      -5.71957685E-07
 -0.469999999      -1.86243398E-07
 -0.458999991       5.06878337E-07
 -0.448000014       7.97883615E-07
 -0.437000006      -3.09523813E-07
 -0.425999999      -2.53121698E-06
 -0.414999992       5.83068811E-07
 -0.404000014       4.76666673E-06
 -0.393000007      -1.65291010E-06
 -0.381999999      -6.79259256E-06
 -0.370999992       5.31461637E-06
 -0.360000014       5.23597873E-06
 -0.349000007      -1.02878312E-05
 -0.338000000       1.67354506E-06
 -0.326999992       1.19153437E-05
 -0.316000015      -1.08275135E-05
 -0.305000007      -3.86243391E-06
 -0.294000000       1.34899474E-05
 -0.282999992      -1.13269843E-05
 -0.272000015      -3.08148151E-06
 -0.261000007       1.92592597E-05
 -0.250000000      -2.18412697E-05
 -0.238999993      -6.09523840E-06
 -0.228000000       5.10306891E-05
 -0.216999993      -3.58941816E-06
 -0.206000000      -7.74095242E-05
 -0.194999993      -3.12550255E-05
 -0.184000000       8.23195805E-05
 -0.172999993       1.25223291E-04
 -0.162000000      -3.34560864E-05
 -0.150999993      -2.35411644E-04
 -0.140000001      -9.44084677E-05
 -0.128999993       3.02594708E-04
 -0.118000001       2.65210576E-04
 -0.107000001      -2.72795762E-04
  -9.60000008E-02  -4.14340757E-04
  -8.50000009E-02   1.48452920E-04
  -7.40000010E-02   4.57007409E-04
  -6.30000010E-02   4.25312173E-05
  -5.20000011E-02  -3.38624348E-04
  -4.10000011E-02  -2.41642338E-04
  -2.99999993E-02   6.23068772E-05
  -1.89999994E-02   3.76008480E-04
  -8.00000038E-03   2.42725931E-04
   3.00000003E-03  -3.44042346E-04
   1.40000004E-02  -3.89011635E-04
   2.50000004E-02   2.10218001E-04
   3.59999985E-02   2.62230693E-04
   4.69999984E-02  -1.45202124E-04
   5.79999983E-02   1.30031749E-05
   6.89999983E-02   5.68888900E-05
   7.99999982E-02  -1.63081480E-04
   9.09999982E-02   6.60994701E-05
  0.101999998       1.51500528E-04
  0.112999998      -2.53155566E-04
  0.123999998       2.11030696E-04
  0.135000005       2.94738624E-04
  0.145999998      -4.15018003E-04
  0.157000005      -4.42107936E-04
  0.167999998       2.47060321E-04
  0.179000005       5.69972501E-04
  0.189999998       8.23534428E-05
  0.201000005      -6.30653987E-04
  0.211999997      -8.01862479E-05
  0.223000005       6.45824359E-04
  0.233999997      -1.47369312E-04
  0.245000005      -6.06814807E-04
  0.256000012       4.33439163E-05
  0.266999990       3.42416926E-04
  0.277999997       7.15174596E-04
  0.289000005      -2.90404249E-04
  0.300000012      -9.05887864E-04
  0.310999990       2.60063498E-05
  0.321999997       1.11827301E-03
  0.333000004      -1.51703702E-04
  0.344000012      -1.58855459E-03
  0.354999989      -6.50158745E-06
  0.365999997       2.42238306E-03
  0.377000004       2.76588369E-04
  0.388000011      -2.67431955E-03
  0.398999989      -5.85142880E-05
  0.409999996       9.92575660E-04
  0.421000004       8.66878327E-06
  0.432000011       1.53004029E-03
  0.442999989       2.77401065E-04
  0.453999996      -3.91829014E-03
  0.465000004       3.20744992E-04
  0.476000011       4.08299686E-03
  0.486999989      -6.41489984E-04
  0.497999996      -2.25388375E-03
  0.509000003       3.98764038E-04
  0.519999981      -2.42725931E-04
  0.531000018      -8.40872002E-04
  0.541999996       2.30589625E-03
  0.552999973       7.71521707E-04
  0.564000010      -1.97214819E-03
  0.574999988      -1.25697363E-04
  0.586000025       1.09660113E-03
  0.597000003      -1.86595565E-03
  0.607999980      -4.40482545E-04
  0.619000018       3.69181810E-03
  0.629999995      -7.67187332E-04
  0.640999973      -2.10001273E-03
  0.652000010       1.67740951E-03
  0.662999988      -1.80744135E-03
  0.674000025      -1.72508787E-03
  0.685000002       4.58145188E-03
  0.695999980       1.73375665E-05
  0.707000017      -4.97588143E-03
  0.717999995       3.42416950E-03
  0.728999972       1.87245721E-03
  0.740000010      -4.18268796E-03
  0.750999987       2.86936737E-03
  0.762000024       1.62539689E-03
  0.773000002      -6.49725320E-03
  0.783999979       2.73066666E-03
  0.795000017       6.49725320E-03
  0.805999994      -5.96845709E-03
  0.816999972      -2.44026259E-03
  0.828000009       5.40065207E-03
  0.838999987      -3.42742028E-03
  0.850000024      -2.31131422E-03
  0.861000001       7.89753255E-03
  0.871999979      -1.76409737E-03
  0.883000016      -7.40151573E-03
  0.893999994       3.87115357E-03
  0.904999971       2.89429002E-03
  0.916000009      -2.52044876E-03
  0.926999986       2.73500104E-03
  0.938000023      -8.85299465E-04
  0.949000001      -5.40932082E-03
  0.959999979       3.48268356E-03
  0.971000016       2.61363806E-03
  0.981999993      -4.18918952E-03
  0.992999971       3.03407409E-03
   1.00399995       3.23128887E-03
   1.01499999      -6.27294835E-03
   1.02600002      -2.38391542E-04
   1.03699994       4.45900531E-03
   1.04799998      -3.61650810E-03
   1.05900002       3.35915363E-04
   1.07000005       5.35297347E-03
   1.08099997      -4.75591142E-03
   1.09200001      -3.00752604E-03
   1.10300004       6.35205116E-03
   1.11399996      -1.89900538E-03
   1.12500000      -4.45575453E-03
   1.13600004       5.67696942E-03
   1.14699996       5.23242343E-04
   1.15799999      -5.72275138E-03
   1.16900003       2.92205717E-03
   1.17999995       2.09987722E-03
   1.19099998      -3.74999363E-03
   1.20200002       2.51516630E-03
   1.21300006       1.78217993E-03
   1.22399998      -4.96098213E-03
   1.23500001       1.36824558E-03
   1.24600005       3.62898642E-03
   1.25699997      -3.38282343E-03
   1.26800001       3.05125926E-04
   1.27900004       3.02860537E-03
   1.28999996      -3.78341600E-03
   1.30100000      -7.62283627E-04
   1.31200004       3.99717456E-03
   1.32299995      -1.72253395E-03
   1.33399999      -5.13431209E-04
   1.34500003       2.72715138E-03
   1.35599995      -4.37165517E-03
   1.36699998      -1.68728258E-03
   1.37800002       7.06842123E-03
   1.38900006      -9.36247641E-04
