 -0.800000012       0.00000000
 -0.788999975       0.00000000
 -0.777999997       0.00000000
 -0.767000020       0.00000000
 -0.755999982       4.87574060E-24
 -0.745000005       9.75148120E-24
 -0.734000027       1.25041359E-16
 -0.722999990      -3.75123999E-15
 -0.712000012       8.75289119E-16
 -0.700999975       5.50181823E-15
 -0.689999998      -5.87694329E-15
 -0.679000020      -1.32543834E-14
 -0.667999983       3.53866953E-14
 -0.657000005       1.60052906E-14
 -0.646000028      -1.13787602E-14
 -0.634999990       4.72656243E-14
 -0.624000013       2.58835566E-14
 -0.612999976      -1.55551434E-13
 -0.601999998      -1.68805908E-14
 -0.591000021       4.73906667E-13
 -0.579999983      -4.36393577E-14
 -0.569000006      -9.45312405E-13
 -0.558000028       1.69681218E-13
 -0.546999991       2.11694984E-12
 -0.536000013      -1.53763330E-12
 -0.524999976      -7.74755856E-13
 -0.513999999       4.02145461E-12
 -0.503000021      -8.89544243E-13
 -0.492000014      -6.18466996E-12
 -0.481000006      -1.49249450E-12
 -0.469999999       4.86423185E-12
 -0.458999991       8.53206915E-12
 -0.448000014      -1.88475017E-12
 -0.437000006      -1.53745853E-11
 -0.425999999       5.64298781E-12
 -0.414999992       1.21277563E-11
 -0.404000014      -2.58181636E-11
 -0.393000007       1.26131640E-11
 -0.381999999       3.60635376E-11
 -0.370999992      -5.52760338E-11
 -0.360000014       3.63568758E-11
 -0.349000007       9.39305231E-11
 -0.338000000      -2.70395289E-10
 -0.326999992      -1.19734861E-10
 -0.316000015       6.54939825E-10
 -0.305000007      -3.46774900E-11
 -0.294000000      -9.99585748E-10
 -0.282999992       7.91681165E-10
 -0.272000015       1.01455744E-09
 -0.261000007      -2.24697416E-09
 -0.250000000      -4.48144993E-10
 -0.238999993       3.68681641E-09
 -0.228000000      -7.37339856E-10
 -0.216999993      -3.96839805E-09
 -0.206000000       2.49418086E-09
 -0.194999993       2.46923926E-09
 -0.184000000      -4.13298018E-09
 -0.172999993       5.64663871E-10
 -0.162000000       4.15038848E-09
 -0.150999993      -4.04679001E-09
 -0.140000001      -2.23361885E-09
 -0.128999993       6.34015551E-09
 -0.118000001      -3.49291679E-10
 -0.107000001      -6.32631147E-09
  -9.60000008E-02   1.53650814E-09
  -8.50000009E-02   3.75269327E-09
  -7.40000010E-02   2.23644436E-09
  -6.30000010E-02   3.21138716E-09
  -5.20000011E-02  -6.96333968E-09
  -4.10000011E-02  -1.06582281E-08
  -2.99999993E-02   6.26477092E-09
  -1.89999994E-02   7.06416925E-09
  -8.00000038E-03  -4.38829018E-09
   3.00000003E-03   7.84656962E-09
   1.40000004E-02   9.59424984E-09
   2.50000004E-02  -1.17830270E-08
   3.59999985E-02  -2.37367614E-09
   4.69999984E-02   6.16473095E-09
   5.79999983E-02  -1.74126971E-08
   6.89999983E-02  -9.89261473E-09
   7.99999982E-02   2.33922108E-08
   9.09999982E-02   1.00000574E-09
  0.101999998      -1.63365783E-08
  0.112999998       2.28862085E-08
  0.123999998       1.78393833E-08
  0.135000005      -2.74475624E-08
  0.145999998      -1.14083756E-08
  0.157000005       1.55697215E-08
  0.167999998      -1.10486500E-08
  0.179000005      -1.16088721E-08
  0.189999998       2.73273564E-08
  0.201000005       3.24665557E-08
  0.211999997       2.42760372E-08
  0.223000005      -3.61332191E-08
  0.233999997      -8.50944630E-08
  0.245000005       6.94962576E-09
  0.256000012       6.86261643E-08
  0.266999990      -6.36506892E-09
  0.277999997       3.05234984E-08
  0.289000005       7.45233635E-08
  0.300000012      -9.92019977E-08
  0.310999990      -1.74364999E-07
  0.321999997       7.49384412E-08
  0.333000004       1.81658052E-07
  0.344000012       1.86027194E-08
  0.354999989      -9.75215215E-08
  0.365999997      -6.23755199E-08
  0.377000004      -1.58295932E-10
  0.388000011       7.24108915E-08
  0.398999989       6.40347935E-08
  0.409999996      -6.97121649E-08
  0.421000004      -1.15794180E-07
  0.432000011      -4.31287042E-08
  0.442999989      -5.38771765E-08
  0.453999996      -3.21459197E-08
  0.465000004       7.80851224E-08
  0.476000011      -2.37762201E-08
  0.486999989      -1.13862797E-07
  0.497999996       7.42233510E-08
  0.509000003       9.47282146E-08
  0.519999981      -1.38352206E-07
  0.531000018      -2.87749629E-08
  0.541999996       1.86020301E-07
  0.552999973      -3.70154609E-08
  0.564000010      -1.02704611E-07
  0.574999988       1.41097857E-07
  0.586000025       1.47487299E-07
  0.597000003      -9.26180448E-08
  0.607999980      -4.71580863E-09
  0.619000018       1.20662875E-07
  0.629999995      -1.60528671E-07
  0.640999973      -2.72645963E-07
  0.652000010       8.24089312E-08
  0.662999988       3.28189913E-07
  0.674000025       6.76966465E-08
  0.685000002      -2.21562871E-07
  0.695999980      -1.64054057E-07
  0.707000017       1.22263009E-08
  0.717999995       1.01161312E-07
  0.728999972       1.21618243E-07
  0.740000010       4.59369005E-08
  0.750999987      -8.64733423E-08
  0.762000024      -1.37993609E-07
  0.773000002      -1.13547616E-08
  0.783999979       1.58726294E-07
  0.795000017       1.31895661E-07
  0.805999994      -9.23547390E-08
  0.816999972      -2.55233914E-07
  0.828000009      -7.35471133E-08
  0.838999987       2.47504573E-07
  0.850000024       2.23776155E-07
  0.861000001      -1.25307054E-08
  0.871999979      -5.61451188E-08
  0.883000016      -1.31181451E-07
  0.893999994      -2.38076694E-07
  0.904999971      -3.03957570E-08
  0.916000009       2.02740011E-07
  0.926999986       1.64690817E-07
  0.938000023      -2.39154048E-08
  0.949000001      -1.45030512E-07
  0.959999979      -1.81554199E-07
  0.971000016      -1.17897066E-07
  0.981999993       1.41438193E-07
  0.992999971       3.07866969E-07
   1.00399995       1.30970477E-07
   1.01499999      -8.29379516E-08
   1.02600002      -1.46060401E-07
   1.03699994      -1.44792921E-07
   1.04799998      -4.07619645E-08
   1.05900002       1.27817614E-07
   1.07000005       1.43588650E-07
   1.08099997       3.51335956E-08
   1.09200001      -2.10153548E-08
   1.10300004      -8.65402043E-08
   1.11399996      -1.09732206E-07
   1.12500000       7.88791752E-08
   1.13600004       2.00088181E-07
   1.14699996      -2.36651054E-08
   1.15799999      -1.95743766E-07
   1.16900003      -2.81359895E-08
   1.17999995       1.25894687E-07
   1.19099998       7.47691757E-08
   1.20200002      -2.45724703E-08
   1.21300006      -1.25832955E-07
   1.22399998      -1.44874136E-07
   1.23500001      -1.99363228E-08
   1.24600005       5.59243958E-08
   1.25699997       6.00198220E-08
   1.26800001       7.47363273E-08
   1.27900004      -6.58302355E-08
   1.28999996      -1.87083955E-07
   1.30100000       4.96319288E-08
   1.31200004       2.11355356E-07
   1.32299995      -5.59718849E-09
   1.33399999      -4.94927050E-08
   1.34500003       8.19734680E-08
   1.35599995      -7.61367147E-08
   1.36699998      -1.05832292E-07
   1.37800002       1.92621002E-07
   1.38900006       1.31871616E-07
