 -0.959999979       0.00000000
 -0.925000012      -1.40466320E-04
 -0.889999986      -1.30395626E-03
 -0.855000019      -1.05441548E-03
 -0.819999993      -7.19886681E-04
 -0.785000026      -5.69425430E-03
 -0.750000000      -1.31413434E-02
 -0.714999974      -1.99160948E-02
 -0.680000007      -3.52446735E-02
 -0.644999981      -6.48760274E-02
 -0.610000014     -0.103529878
 -0.574999988     -0.151703551
 -0.540000021     -0.208796516
 -0.504999995     -0.255729169
 -0.469999999     -0.269442558
 -0.435000002     -0.227611467
 -0.400000006      -9.01110247E-02
 -0.365000010      0.175380245
 -0.330000013      0.545931399
 -0.294999987      0.951391697
 -0.259999990       1.29134488
 -0.224999994       1.41647148
 -0.189999998       1.16035318
 -0.155000001      0.431657076
 -0.119999997     -0.747214496
  -8.50000009E-02  -2.24986482
  -5.00000007E-02  -3.83686829
  -1.49999997E-02  -5.20199394
   1.99999996E-02  -6.10051346
   5.49999997E-02  -6.40551138
   9.00000036E-02  -6.04638720
  0.125000000      -4.94939899
  0.159999996      -2.98866820
  0.194999993       7.08617344E-02
  0.230000004       4.48946953
  0.264999986       10.2717047
  0.300000012       16.8906918
  0.335000008       23.1814671
  0.370000005       27.4490318
  0.405000001       27.8884430
  0.439999998       23.2659416
  0.474999994       13.5130539
  0.509999990      -7.62716457E-02
  0.545000017      -15.1017685
  0.579999983      -28.7132950
  0.615000010      -38.4479828
  0.649999976      -42.8263016
  0.685000002      -41.4670753
  0.720000029      -34.8612328
  0.754999995      -24.0413628
  0.790000021      -10.3328600
  0.824999988       4.66230822
  0.860000014       18.9339790
  0.894999981       30.1294327
  0.930000007       36.0227356
  0.964999974       35.2534256
   1.00000000       28.0199661
   1.03499997       16.3515701
   1.07000005       3.64016390
   1.10500002      -6.52536106
   1.13999999      -11.7244997
   1.17499995      -11.6229725
   1.21000004      -7.98946476
   1.24500000      -3.74366927
   1.27999997      -1.45636523
   1.31500006      -2.07454586
   1.35000002      -4.54991245
   1.38499999      -6.55016279
   1.41999996      -5.87218046
   1.45500004      -1.81638205
   1.49000001       4.24797583
   1.52499998       9.49588490
   1.55999994       11.1278296
   1.59500003       7.91368914
   1.63000000      0.981172204
