 -0.959999979       0.00000000
 -0.925000012       8.15253006E-05
 -0.889999986       7.98146124E-04
 -0.855000019      -1.07127021E-03
 -0.819999993      -1.02346623E-03
 -0.785000026       3.70873767E-03
 -0.750000000       1.95248588E-03
 -0.714999974      -3.33812390E-03
 -0.680000007       6.50152448E-04
 -0.644999981       2.08307826E-03
 -0.610000014      -8.09225719E-03
 -0.574999988      -1.78715792E-02
 -0.540000021      -3.39067988E-02
 -0.504999995      -6.76883981E-02
 -0.469999999     -0.105254270
 -0.435000002     -0.146008447
 -0.400000006     -0.200821146
 -0.365000010     -0.250454634
 -0.330000013     -0.288115203
 -0.294999987     -0.353086144
 -0.259999990     -0.487968504
 -0.224999994     -0.749507487
 -0.189999998      -1.22625422
 -0.155000001      -1.94638765
 -0.119999997      -2.79554582
  -8.50000009E-02  -3.50083423
  -5.00000007E-02  -3.60034204
  -1.49999997E-02  -2.49480772
   1.99999996E-02  0.325154930
   5.49999997E-02   5.00488710
   9.00000036E-02   11.0963974
  0.125000000       17.4042492
  0.159999996       22.0787544
  0.194999993       23.0620289
  0.230000004       18.7445145
  0.264999986       8.65127373
  0.300000012      -6.04272366
  0.335000008      -22.4786892
  0.370000005      -36.7297134
  0.405000001      -44.8987961
  0.439999998      -44.3652496
  0.474999994      -34.7583771
  0.509999990      -18.1973820
  0.545000017       1.37152493
  0.579999983       19.4510345
  0.615000010       32.3781052
  0.649999976       38.2935486
  0.685000002       37.3077507
  0.720000029       30.9153538
  0.754999995       21.1269264
  0.790000021       9.78685665
  0.824999988      -1.65490139
  0.860000014      -11.9252682
  0.894999981      -19.6313438
  0.930000007      -23.3117962
  0.964999974      -21.9306183
   1.00000000      -15.5670033
   1.03499997      -5.86217356
   1.07000005       4.22259617
   1.10500002       11.4096994
   1.13999999       13.4349108
   1.17499995       10.0731649
   1.21000004       3.30637765
   1.24500000      -3.57569289
   1.27999997      -7.52202654
   1.31500006      -7.11696434
   1.35000002      -3.17381811
   1.38499999       1.77509451
   1.41999996       4.87825680
   1.45500004       4.47932434
   1.49000001      0.927641809
   1.52499998      -3.66459465
   1.55999994      -6.57810307
   1.59500003      -5.97598457
   1.63000000      -1.89829886
