 -0.959999979       0.00000000
 -0.925000012       0.00000000
 -0.889999986       2.83410657E-20
 -0.855000019       2.96845583E-13
 -0.819999993      -9.20218695E-14
 -0.785000026      -9.40717231E-13
 -0.750000000      -1.75423669E-11
 -0.714999974      -2.71718065E-11
 -0.680000007       2.09756865E-11
 -0.644999981       8.93018853E-11
 -0.610000014       1.00032142E-10
 -0.574999988       1.68579983E-10
 -0.540000021       1.43783749E-10
 -0.504999995       1.68961650E-10
 -0.469999999       5.69373382E-10
 -0.435000002       1.23385624E-09
 -0.400000006       2.06552220E-09
 -0.365000010       1.43888901E-09
 -0.330000013       1.51585713E-08
 -0.294999987      -2.18925820E-08
 -0.259999990      -1.52502189E-08
 -0.224999994       2.09724593E-08
 -0.189999998       1.78628490E-08
 -0.155000001      -8.98157015E-09
 -0.119999997      -5.88535132E-09
  -8.50000009E-02   1.55701425E-08
  -5.00000007E-02   4.03765839E-08
  -1.49999997E-02   9.63131264E-09
   1.99999996E-02  -2.22395133E-08
   5.49999997E-02  -3.38114283E-08
   9.00000036E-02   5.33204236E-09
  0.125000000       3.43227278E-08
  0.159999996       3.05051273E-09
  0.194999993      -2.86197555E-08
  0.230000004      -3.57789318E-08
  0.264999986      -4.56606841E-08
  0.300000012      -1.37646161E-08
  0.335000008       4.26272386E-08
  0.370000005       6.45807745E-08
  0.405000001       3.42514817E-08
  0.439999998      -3.05289447E-08
  0.474999994      -7.38936379E-08
  0.509999990      -5.83626978E-08
  0.545000017      -7.93917376E-09
  0.579999983       4.60438088E-08
  0.615000010       3.79532068E-08
  0.649999976      -5.80984789E-08
  0.685000002      -1.40537452E-07
  0.720000029      -5.96814971E-08
  0.754999995       1.06726972E-07
  0.790000021       1.23655155E-07
  0.824999988      -5.80612607E-08
  0.860000014      -1.55063574E-07
  0.894999981      -1.20197834E-08
  0.930000007       1.31145271E-07
  0.964999974       8.36525373E-08
   1.00000000      -3.85017600E-08
   1.03499997      -8.90203466E-08
   1.07000005      -6.24483292E-08
   1.10500002       1.26712427E-08
   1.13999999       8.32626696E-08
   1.17499995       6.75391476E-08
   1.21000004      -2.37412561E-08
   1.24500000      -9.55832817E-08
   1.27999997      -7.91478030E-08
   1.31500006       1.83797528E-08
   1.35000002       8.52753175E-08
   1.38499999       5.93797083E-08
   1.41999996       3.28715863E-08
   1.45500004       4.33817782E-08
   1.49000001       2.67189071E-09
   1.52499998      -5.29801163E-08
   1.55999994      -1.65236038E-08
   1.59500003       3.19243654E-08
   1.63000000       1.31597506E-08
