 -0.959999979       0.00000000
 -0.925000012       2.18143542E-21
 -0.889999986       4.36287084E-21
 -0.855000019      -7.45056957E-13
 -0.819999993       8.63832985E-13
 -0.785000026       1.74031980E-12
 -0.750000000      -2.42970713E-11
 -0.714999974      -1.32708098E-11
 -0.680000007       2.24601917E-11
 -0.644999981      -1.05861930E-10
 -0.610000014       7.70644770E-10
 -0.574999988       9.74116204E-11
 -0.540000021      -9.75378334E-10
 -0.504999995       1.66687630E-09
 -0.469999999      -5.63856628E-10
 -0.435000002      -5.96039840E-09
 -0.400000006       4.05288514E-09
 -0.365000010       5.86945470E-09
 -0.330000013      -1.00859490E-08
 -0.294999987      -2.15950768E-09
 -0.259999990       3.19220703E-08
 -0.224999994       2.22982006E-08
 -0.189999998      -8.13102297E-09
 -0.155000001      -2.19580407E-08
 -0.119999997      -1.70298122E-08
  -8.50000009E-02  -8.78604856E-10
  -5.00000007E-02  -4.93451857E-09
  -1.49999997E-02  -6.86583235E-08
   1.99999996E-02  -1.27764338E-07
   5.49999997E-02  -1.14185688E-07
   9.00000036E-02   2.60977060E-07
  0.125000000       4.34562423E-07
  0.159999996      -2.63904610E-07
  0.194999993      -3.57751844E-07
  0.230000004      -6.07288229E-08
  0.264999986      -3.68085409E-07
  0.300000012      -2.03674972E-07
  0.335000008       8.00488920E-07
  0.370000005       1.18111211E-06
  0.405000001       5.83801025E-08
  0.439999998      -6.63085075E-07
  0.474999994      -5.56151633E-07
  0.509999990      -3.45636522E-07
  0.545000017       8.12555143E-08
  0.579999983       1.39423591E-07
  0.615000010       1.39506611E-07
  0.649999976       6.23073362E-08
  0.685000002      -3.11067424E-07
  0.720000029      -4.31252488E-07
  0.754999995       1.74153570E-07
  0.790000021      -1.19683943E-08
  0.824999988      -9.89551609E-07
  0.860000014       2.86246689E-07
  0.894999981       2.06611367E-06
  0.930000007       8.49392222E-07
  0.964999974      -1.27047099E-06
   1.00000000      -9.49492119E-07
   1.03499997       3.40294662E-07
   1.07000005       1.86347947E-07
   1.10500002      -2.14577312E-07
   1.13999999       2.56905679E-07
   1.17499995       4.99982036E-07
   1.21000004       5.05470297E-08
   1.24500000      -5.72546753E-07
   1.27999997      -1.04513833E-06
   1.31500006      -5.35254060E-07
   1.35000002       9.52496634E-07
   1.38499999       1.32669368E-06
   1.41999996       3.67925992E-08
   1.45500004      -5.80649328E-07
   1.49000001       9.88195055E-08
   1.52499998       9.78865415E-08
   1.55999994      -4.28056040E-07
   1.59500003       2.69193464E-07
   1.63000000       9.21519188E-07
