 -0.959999979       0.00000000
 -0.925000012       0.00000000
 -0.889999986       3.26729305E-24
 -0.855000019      -6.42743503E-09
 -0.819999993      -1.02968059E-07
 -0.785000026      -2.40418444E-07
 -0.750000000      -2.50850718E-07
 -0.714999974      -4.90145169E-07
 -0.680000007      -1.62888364E-06
 -0.644999981      -3.63728350E-06
 -0.610000014      -6.36296318E-06
 -0.574999988      -1.08771810E-05
 -0.540000021      -1.89034890E-05
 -0.504999995      -3.17295344E-05
 -0.469999999      -5.02779403E-05
 -0.435000002      -7.46418227E-05
 -0.400000006      -1.03530765E-04
 -0.365000010      -1.35426817E-04
 -0.330000013      -1.69156803E-04
 -0.294999987      -2.03675896E-04
 -0.259999990      -2.42660870E-04
 -0.224999994      -3.04885121E-04
 -0.189999998      -4.35726048E-04
 -0.155000001      -7.20549491E-04
 -0.119999997      -1.30208267E-03
  -8.50000009E-02  -2.39459379E-03
  -5.00000007E-02  -4.28378955E-03
  -1.49999997E-02  -7.30203651E-03
   1.99999996E-02  -1.17639164E-02
   5.49999997E-02  -1.78512707E-02
   9.00000036E-02  -2.54581999E-02
  0.125000000      -3.40298638E-02
  0.159999996      -4.24504019E-02
  0.194999993      -4.90534939E-02
  0.230000004      -5.18142134E-02
  0.264999986      -4.87213172E-02
  0.300000012      -3.82611342E-02
  0.335000008      -1.98932420E-02
  0.370000005       5.62876230E-03
  0.405000001       3.62085626E-02
  0.439999998       6.86536506E-02
  0.474999994       9.91433784E-02
  0.509999990      0.123797655
  0.545000017      0.139223337
  0.579999983      0.142951429
  0.615000010      0.133742243
  0.649999976      0.111774057
  0.685000002       7.87135139E-02
  0.720000029       3.76349725E-02
  0.754999995      -7.25226291E-03
  0.790000021      -5.10918498E-02
  0.824999988      -8.90515670E-02
  0.860000014     -0.117061786
  0.894999981     -0.132451668
  0.930000007     -0.134327769
  0.964999974     -0.123605639
   1.00000000     -0.102703609
   1.03499997      -7.50108883E-02
   1.07000005      -4.42923419E-02
   1.10500002      -1.41670955E-02
   1.13999999       1.22722182E-02
   1.17499995       3.27055156E-02
   1.21000004       4.57442664E-02
   1.24500000       5.10331690E-02
   1.27999997       4.92637455E-02
   1.31500006       4.20324653E-02
   1.35000002       3.15071382E-02
   1.38499999       1.99505351E-02
   1.41999996       9.24081448E-03
   1.45500004       5.61721507E-04
   1.49000001      -5.63147245E-03
   1.52499998      -9.40497406E-03
   1.55999994      -1.10550420E-02
   1.59500003      -1.09098461E-02
   1.63000000      -9.31023713E-03
