 -0.800000012       0.00000000
 -0.788999975       0.00000000
 -0.777999997       0.00000000
 -0.767000020       9.87461363E-11
 -0.755999982       4.80913018E-11
 -0.745000005       5.11505238E-09
 -0.734000027      -3.35024488E-08
 -0.722999990       1.04261616E-07
 -0.712000012      -2.23155453E-07
 -0.700999975       1.78493551E-07
 -0.689999998       9.40514667E-07
 -0.679000020      -3.23675158E-06
 -0.667999983       1.24091298E-06
 -0.657000005       1.12826119E-05
 -0.646000028      -1.71614174E-05
 -0.634999990      -1.77606653E-05
 -0.624000013       6.09782110E-05
 -0.612999976      -2.18270088E-06
 -0.601999998      -1.29966633E-04
 -0.591000021       8.58884086E-05
 -0.579999983       1.74986490E-04
 -0.569000006      -2.49443110E-04
 -0.558000028      -9.11856114E-05
 -0.546999991       4.39847237E-04
 -0.536000013      -2.28049073E-04
 -0.524999976      -5.13074396E-04
 -0.513999999       7.55405752E-04
 -0.503000021       2.62204703E-04
 -0.492000014      -1.18810835E-03
 -0.481000006       5.19619207E-04
 -0.469999999       1.00520416E-03
 -0.458999991      -1.90352788E-03
 -0.448000014       1.44709731E-04
 -0.437000006       3.48510290E-03
 -0.425999999      -2.08422402E-03
 -0.414999992      -4.06952808E-03
 -0.404000014       4.37064888E-03
 -0.393000007       2.33531627E-03
 -0.381999999      -6.54916000E-03
 -0.370999992       1.69498462E-03
 -0.360000014       7.25365896E-03
 -0.349000007      -7.21978163E-03
 -0.338000000      -5.17818099E-03
 -0.326999992       1.34329889E-02
 -0.316000015       2.65414105E-03
 -0.305000007      -1.34524032E-02
 -0.294000000       5.96995465E-03
 -0.282999992       1.37134725E-02
 -0.272000015      -9.15182009E-03
 -0.261000007      -2.17314297E-03
 -0.250000000       2.04377919E-02
 -0.238999993       2.51581124E-03
 -0.228000000      -7.93197192E-03
 -0.216999993       2.26396210E-02
 -0.206000000       2.53220592E-02
 -0.194999993       2.76164757E-03
 -0.184000000       2.41157394E-02
 -0.172999993       4.97966148E-02
 -0.162000000       3.37200612E-02
 -0.150999993       4.19376567E-02
 -0.140000001       8.39015618E-02
 -0.128999993       9.01146010E-02
 -0.118000001       9.16808695E-02
 -0.107000001      0.140347019
  -9.60000008E-02  0.178679392
  -8.50000009E-02  0.191868439
  -7.40000010E-02  0.244289950
  -6.30000010E-02  0.311629802
  -5.20000011E-02  0.348194182
  -4.10000011E-02  0.409731448
  -2.99999993E-02  0.508151114
  -1.89999994E-02  0.578179836
  -8.00000038E-03  0.646404088
   3.00000003E-03  0.760922790
   1.40000004E-02  0.861519933
   2.50000004E-02  0.932409823
   3.59999985E-02   1.04273283
   4.69999984E-02   1.16016185
   5.79999983E-02   1.21936214
   6.89999983E-02   1.28051281
   7.99999982E-02   1.36707747
   9.09999982E-02   1.38944268
  0.101999998       1.35729015
  0.112999998       1.34326911
  0.123999998       1.28173327
  0.135000005       1.11439812
  0.145999998      0.925771892
  0.157000005      0.723126650
  0.167999998      0.406608701
  0.179000005       9.83570144E-03
  0.189999998     -0.384583861
  0.201000005     -0.845912278
  0.211999997      -1.41235328
  0.223000005      -1.97981465
  0.233999997      -2.53945327
  0.245000005      -3.17330408
  0.256000012      -3.81780672
  0.266999990      -4.38256979
  0.277999997      -4.92970800
  0.289000005      -5.47143078
  0.300000012      -5.89515924
  0.310999990      -6.20321274
  0.321999997      -6.46538401
  0.333000004      -6.60677433
  0.344000012      -6.56418180
  0.354999989      -6.42098761
  0.365999997      -6.18575191
  0.377000004      -5.77193832
  0.388000011      -5.22417974
  0.398999989      -4.62051439
  0.409999996      -3.90304422
  0.421000004      -3.06079650
  0.432000011      -2.19642568
  0.442999989      -1.30935681
  0.453999996     -0.341452450
  0.465000004      0.634956717
  0.476000011       1.56035960
  0.486999989       2.50375485
  0.497999996       3.46605420
  0.509000003       4.36065435
  0.519999981       5.21558142
  0.531000018       6.09951448
  0.541999996       6.95716906
  0.552999973       7.74723387
  0.564000010       8.54114246
  0.574999988       9.35053444
  0.586000025       10.0952044
  0.597000003       10.7770433
  0.607999980       11.4460316
  0.619000018       12.0445814
  0.629999995       12.4973564
  0.640999973       12.8254995
  0.652000010       13.0184422
  0.662999988       12.9866276
  0.674000025       12.6994610
  0.685000002       12.1743469
  0.695999980       11.3614063
  0.707000017       10.2189913
  0.717999995       8.78031158
  0.728999972       7.05283499
  0.740000010       5.02253723
  0.750999987       2.74971652
  0.762000024      0.301823020
  0.773000002      -2.30336595
  0.783999979      -4.99100733
  0.795000017      -7.63605642
  0.805999994      -10.1815138
  0.816999972      -12.5830059
  0.828000009      -14.7170248
  0.838999987      -16.4889851
  0.850000024      -17.8866940
  0.861000001      -18.8639488
  0.871999979      -19.3361454
  0.883000016      -19.3010426
  0.893999994      -18.8091431
  0.904999971      -17.8543873
  0.916000009      -16.4366093
  0.926999986      -14.6497364
  0.938000023      -12.5852871
  0.949000001      -10.2727852
  0.959999979      -7.78380442
  0.971000016      -5.25084209
  0.981999993      -2.74854922
  0.992999971     -0.310670793
   1.00399995       1.96921551
   1.01499999       4.00031137
   1.02600002       5.77136087
   1.03699994       7.26442242
   1.04799998       8.42120743
   1.05900002       9.23796940
   1.07000005       9.75289345
   1.08099997       9.96475506
   1.09200001       9.87789917
   1.10300004       9.55255890
   1.11399996       9.03500175
   1.12500000       8.33609295
   1.13600004       7.50223064
   1.14699996       6.60409689
   1.15799999       5.66399908
   1.16900003       4.69200277
   1.17999995       3.74506950
   1.19099998       2.86505961
   1.20200002       2.03713250
   1.21300006       1.27402067
   1.22399998      0.624292433
   1.23500001       7.71880969E-02
   1.24600005     -0.400313944
   1.25699997     -0.777382314
   1.26800001      -1.04164028
   1.27900004      -1.24597120
   1.28999996      -1.39291930
   1.30100000      -1.44839728
   1.31200004      -1.45443225
   1.32299995      -1.45017922
   1.33399999      -1.39586413
   1.34500003      -1.29591632
   1.35599995      -1.21196699
   1.36699998      -1.12915838
   1.37800002      -1.00821948
   1.38900006     -0.893211186
