 -0.800000012       0.00000000
 -0.788999975       0.00000000
 -0.777999997       0.00000000
 -0.767000020       0.00000000
 -0.755999982      -1.88665875E-10
 -0.745000005       3.44109574E-10
 -0.734000027       5.41373035E-09
 -0.722999990      -8.34840819E-09
 -0.712000012      -2.29987442E-08
 -0.700999975       4.07857961E-08
 -0.689999998       4.83128417E-08
 -0.679000020      -1.11088667E-07
 -0.667999983      -5.15449834E-08
 -0.657000005       2.08334370E-07
 -0.646000028      -4.75750161E-10
 -0.634999990      -2.79692784E-07
 -0.624000013       6.93887827E-08
 -0.612999976       1.85901044E-07
 -0.601999998      -3.84998557E-08
 -0.591000021       3.07818226E-07
 -0.579999983      -8.72893366E-08
 -0.569000006      -1.26051282E-06
 -0.558000028       6.22691161E-08
 -0.546999991       2.09787277E-06
 -0.536000013       7.94699702E-08
 -0.524999976      -2.07900530E-06
 -0.513999999       1.20525158E-07
 -0.503000021       1.32922582E-06
 -0.492000014      -4.40426788E-07
 -0.481000006      -2.49892992E-07
 -0.469999999      -1.08921384E-07
 -0.458999991      -2.07271091E-06
 -0.448000014      -2.47830378E-08
 -0.437000006       4.21553614E-06
 -0.425999999       2.96819326E-06
 -0.414999992       1.09220684E-06
 -0.404000014       3.78640630E-06
 -0.393000007       5.94420362E-06
 -0.381999999       9.29351881E-06
 -0.370999992       1.78734354E-05
 -0.360000014       2.39867750E-05
 -0.349000007       2.76084011E-05
 -0.338000000       4.01512480E-05
 -0.326999992       5.91150383E-05
 -0.316000015       7.81112249E-05
 -0.305000007       1.06047810E-04
 -0.294000000       1.46182574E-04
 -0.282999992       1.92422507E-04
 -0.272000015       2.54076091E-04
 -0.261000007       3.43501131E-04
 -0.250000000       4.56658512E-04
 -0.238999993       5.95087942E-04
 -0.228000000       7.74811779E-04
 -0.216999993       1.00534584E-03
 -0.206000000       1.29274477E-03
 -0.194999993       1.65363227E-03
 -0.184000000       2.10539554E-03
 -0.172999993       2.66105286E-03
 -0.162000000       3.34044057E-03
 -0.150999993       4.16971883E-03
 -0.140000001       5.17310901E-03
 -0.128999993       6.37640990E-03
 -0.118000001       7.81222060E-03
 -0.107000001       9.51369852E-03
  -9.60000008E-02   1.15095982E-02
  -8.50000009E-02   1.38320057E-02
  -7.40000010E-02   1.65177938E-02
  -6.30000010E-02   1.95961781E-02
  -5.20000011E-02   2.30906736E-02
  -4.10000011E-02   2.70290673E-02
  -2.99999993E-02   3.14284377E-02
  -1.89999994E-02   3.62854861E-02
  -8.00000038E-03   4.15955819E-02
   3.00000003E-03   4.73483130E-02
   1.40000004E-02   5.35037257E-02
   2.50000004E-02   6.00039139E-02
   3.59999985E-02   6.67819381E-02
   4.69999984E-02   7.37394243E-02
   5.79999983E-02   8.07517916E-02
   6.89999983E-02   8.76846761E-02
   7.99999982E-02   9.43736285E-02
   9.09999982E-02  0.100622922
  0.101999998      0.106230423
  0.112999998      0.110974640
  0.123999998      0.114608616
  0.135000005      0.116891593
  0.145999998      0.117583431
  0.157000005      0.116428845
  0.167999998      0.113195837
  0.179000005      0.107688576
  0.189999998       9.97203439E-02
  0.201000005       8.91386196E-02
  0.211999997       7.58554414E-02
  0.223000005       5.98249286E-02
  0.233999997       4.10519466E-02
  0.245000005       1.96254998E-02
  0.256000012      -4.29876195E-03
  0.266999990      -3.05061545E-02
  0.277999997      -5.86952008E-02
  0.289000005      -8.84926915E-02
  0.300000012     -0.119472750
  0.310999990     -0.151131585
  0.321999997     -0.182899669
  0.333000004     -0.214182362
  0.344000012     -0.244348601
  0.354999989     -0.272729158
  0.365999997     -0.298664689
  0.377000004     -0.321516812
  0.388000011     -0.340654433
  0.398999989     -0.355491370
  0.409999996     -0.365522504
  0.421000004     -0.370315999
  0.432000011     -0.369524062
  0.442999989     -0.362919956
  0.453999996     -0.350404769
  0.465000004     -0.331998199
  0.476000011     -0.307854712
  0.486999989     -0.278277874
  0.497999996     -0.243703708
  0.509000003     -0.204688862
  0.519999981     -0.161919728
  0.531000018     -0.116193637
  0.541999996      -6.83799684E-02
  0.552999973      -1.94151066E-02
  0.564000010       2.97095180E-02
  0.574999988       7.80038312E-02
  0.586000025      0.124502674
  0.597000003      0.168259427
  0.607999980      0.208399266
  0.619000018      0.244168237
  0.629999995      0.274911553
  0.640999973      0.300092489
  0.652000010      0.319352984
  0.662999988      0.332492560
  0.674000025      0.339440256
  0.685000002      0.340301692
  0.695999980      0.335352570
  0.707000017      0.324975431
  0.717999995      0.309672028
  0.728999972      0.290072978
  0.740000010      0.266867548
  0.750999987      0.240779966
  0.762000024      0.212589011
  0.773000002      0.183072329
  0.783999979      0.152958676
  0.795000017      0.122950934
  0.805999994       9.37052742E-02
  0.816999972       6.57777339E-02
  0.828000009       3.96376997E-02
  0.838999987       1.56825315E-02
  0.850000024      -5.79817686E-03
  0.861000001      -2.46228725E-02
  0.871999979      -4.06846032E-02
  0.883000016      -5.39578274E-02
  0.893999994      -6.45083264E-02
  0.904999971      -7.24629238E-02
  0.916000009      -7.79893249E-02
  0.926999986      -8.13030228E-02
  0.938000023      -8.26549605E-02
  0.949000001      -8.23035315E-02
  0.959999979      -8.05110857E-02
  0.971000016      -7.75485933E-02
  0.981999993      -7.36749917E-02
  0.992999971      -6.91210926E-02
   1.00399995      -6.41028211E-02
   1.01499999      -5.88202700E-02
   1.02600002      -5.34358993E-02
   1.03699994      -4.80823629E-02
   1.04799998      -4.28793691E-02
   1.05900002      -3.79166789E-02
   1.07000005      -3.32497247E-02
   1.08099997      -2.89250147E-02
   1.09200001      -2.49754898E-02
   1.10300004      -2.14044973E-02
   1.11399996      -1.82077028E-02
   1.12500000      -1.53827043E-02
   1.13600004      -1.29077099E-02
   1.14699996      -1.07516525E-02
   1.15799999      -8.89539812E-03
   1.16900003      -7.31327292E-03
   1.17999995      -5.96661447E-03
   1.19099998      -4.82957717E-03
   1.20200002      -3.88390734E-03
   1.21300006      -3.09848087E-03
   1.22399998      -2.44625914E-03
   1.23500001      -1.91501551E-03
   1.24600005      -1.48594973E-03
   1.25699997      -1.13536534E-03
   1.26800001      -8.53788864E-04
   1.27900004      -6.33987365E-04
   1.28999996      -4.59643867E-04
   1.30100000      -3.22210748E-04
   1.31200004      -2.20530303E-04
   1.32299995      -1.44161808E-04
   1.33399999      -8.41753426E-05
   1.34500003      -4.31859080E-05
   1.35599995      -1.75224104E-05
   1.36699998       2.45521846E-06
   1.37800002       1.40926768E-05
   1.38900006       1.43316620E-05
