 -0.959999979       0.00000000
 -0.925000012       0.00000000
 -0.889999986      -3.07392511E-08
 -0.855000019      -1.33048175E-07
 -0.819999993      -4.72039204E-07
 -0.785000026      -1.22133827E-06
 -0.750000000      -2.26733027E-06
 -0.714999974      -4.22866015E-06
 -0.680000007      -9.72140424E-06
 -0.644999981      -2.13294788E-05
 -0.610000014      -3.99967175E-05
 -0.574999988      -6.98841104E-05
 -0.540000021      -1.21162477E-04
 -0.504999995      -2.02196941E-04
 -0.469999999      -3.14582721E-04
 -0.435000002      -4.58697265E-04
 -0.400000006      -6.31098112E-04
 -0.365000010      -8.10642843E-04
 -0.330000013      -9.56679753E-04
 -0.294999987      -1.01803301E-03
 -0.259999990      -9.32918920E-04
 -0.224999994      -6.30616210E-04
 -0.189999998      -4.69415245E-05
 -0.155000001       8.72383011E-04
 -0.119999997       2.19347817E-03
  -8.50000009E-02   4.01595002E-03
  -5.00000007E-02   6.48347847E-03
  -1.49999997E-02   9.78193898E-03
   1.99999996E-02   1.40857361E-02
   5.49999997E-02   1.94147192E-02
   9.00000036E-02   2.54207198E-02
  0.125000000       3.11524421E-02
  0.159999996       3.48618813E-02
  0.194999993       3.39568295E-02
  0.230000004       2.52148826E-02
  0.264999986       5.32195065E-03
  0.300000012      -2.82738246E-02
  0.335000008      -7.63032362E-02
  0.370000005     -0.136659071
  0.405000001     -0.203750744
  0.439999998     -0.268540174
  0.474999994     -0.319472820
  0.509999990     -0.344312847
  0.545000017     -0.332580537
  0.579999983     -0.278043956
  0.615000010     -0.180664361
  0.649999976      -4.74790968E-02
  0.685000002      0.107891977
  0.720000029      0.267094880
  0.754999995      0.409882426
  0.790000021      0.517404914
  0.824999988      0.575359643
  0.860000014      0.576407075
  0.894999981      0.521353781
  0.930000007      0.418861538
  0.964999974      0.283780575
   1.00000000      0.134484664
   1.03499997      -1.02390815E-02
   1.07000005     -0.134110063
   1.10500002     -0.225523248
   1.13999999     -0.278671294
   1.17499995     -0.293636411
   1.21000004     -0.275627673
   1.24500000     -0.233554736
   1.27999997     -0.178169221
   1.31500006     -0.120079264
   1.35000002      -6.79744482E-02
   1.38499999      -2.73940004E-02
   1.41999996      -3.28146241E-04
   1.45500004       1.42565519E-02
   1.49000001       1.92259699E-02
   1.52499998       1.79423522E-02
   1.55999994       1.32882418E-02
   1.59500003       7.29748560E-03
   1.63000000       1.30309619E-03
