 -0.959999979       0.00000000
 -0.925000012       0.00000000
 -0.889999986       1.52700474E-22
 -0.855000019       3.05400949E-22
 -0.819999993      -5.21539870E-14
 -0.785000026       6.04683201E-14
 -0.750000000       6.96683921E-14
 -0.714999974      -1.64032676E-12
 -0.680000007      -8.59288335E-13
 -0.644999981      -6.81134158E-14
 -0.610000014      -8.26962370E-12
 -0.574999988       5.38770209E-11
 -0.540000021      -1.45080757E-12
 -0.504999995      -1.43994634E-11
 -0.469999999       1.15230533E-10
 -0.435000002      -5.38694332E-11
 -0.400000006      -3.01997344E-10
 -0.365000010       2.29832542E-10
 -0.330000013       1.08864487E-10
 -0.294999987      -4.76183926E-10
 -0.259999990      -4.23010446E-11
 -0.224999994       1.75836101E-09
 -0.189999998       1.51857316E-09
 -0.155000001       1.18918964E-09
 -0.119999997      -1.84897288E-11
  -8.50000009E-02  -2.89718163E-12
  -5.00000007E-02  -7.99917910E-11
  -1.49999997E-02  -3.48313323E-10
   1.99999996E-02  -4.88607466E-09
   5.49999997E-02  -9.29181798E-09
   9.00000036E-02  -1.28790729E-08
  0.125000000       8.97657504E-09
  0.159999996       1.75402981E-08
  0.194999993      -9.49674828E-09
  0.230000004      -7.50233209E-09
  0.264999986      -1.37477647E-08
  0.300000012      -3.32683108E-08
  0.335000008      -2.80050134E-08
  0.370000005       2.27659154E-08
  0.405000001       5.46728351E-08
  0.439999998       2.68525291E-08
  0.474999994       8.25688495E-09
  0.509999990      -1.20780870E-08
  0.545000017      -1.59376725E-08
  0.579999983      -6.39020126E-09
  0.615000010      -6.17802121E-09
  0.649999976       3.37526140E-09
  0.685000002      -1.81650928E-09
  0.720000029      -1.83994615E-08
  0.754999995      -3.20041842E-08
  0.790000021      -6.20870866E-09
  0.824999988      -3.28419745E-08
  0.860000014      -7.54773168E-08
  0.894999981      -1.28046969E-08
  0.930000007       6.91506514E-08
  0.964999974       4.66527439E-08
   1.00000000      -1.97823216E-08
   1.03499997      -1.98117078E-08
   1.07000005       4.03829992E-09
   1.10500002      -6.76735468E-09
   1.13999999      -1.09821148E-08
   1.17499995       1.12160485E-08
   1.21000004       2.40166305E-08
   1.24500000       1.47543435E-08
   1.27999997      -1.60616462E-08
   1.31500006      -5.84053446E-08
   1.35000002      -5.35294369E-08
   1.38499999       8.26941982E-09
   1.41999996       3.93391275E-08
   1.45500004       1.08449036E-08
   1.49000001      -1.30632805E-09
   1.52499998       1.77622645E-08
   1.55999994       5.54572699E-09
   1.59500003      -1.22016628E-08
   1.63000000       2.43892710E-08
