 -0.959999979       0.00000000
 -0.925000012       0.00000000
 -0.889999986       9.98684939E-08
 -0.855000019       1.17746606E-06
 -0.819999993       9.42757481E-07
 -0.785000026      -5.45697333E-07
 -0.750000000       2.50905236E-06
 -0.714999974       7.95559845E-06
 -0.680000007       9.31294107E-06
 -0.644999981       1.14667164E-05
 -0.610000014       1.61722746E-05
 -0.574999988       1.09648181E-05
 -0.540000021      -1.61353219E-05
 -0.504999995      -8.47712945E-05
 -0.469999999      -2.36325563E-04
 -0.435000002      -5.16816333E-04
 -0.400000006      -9.76167386E-04
 -0.365000010      -1.68152445E-03
 -0.330000013      -2.69368850E-03
 -0.294999987      -4.05879365E-03
 -0.259999990      -5.85642876E-03
 -0.224999994      -8.25182535E-03
 -0.189999998      -1.15653696E-02
 -0.155000001      -1.63810737E-02
 -0.119999997      -2.35811062E-02
  -8.50000009E-02  -3.42056789E-02
  -5.00000007E-02  -4.91187759E-02
  -1.49999997E-02  -6.84422925E-02
   1.99999996E-02  -9.08219516E-02
   5.49999997E-02 -0.112803288
   9.00000036E-02 -0.128653631
  0.125000000     -0.130910903
  0.159999996     -0.111847974
  0.194999993      -6.57385662E-02
  0.230000004       8.62183329E-03
  0.264999986      0.105944261
  0.300000012      0.213864505
  0.335000008      0.314382404
  0.370000005      0.387363911
  0.405000001      0.415351540
  0.439999998      0.388338119
  0.474999994      0.306977302
  0.509999990      0.183037445
  0.545000017       3.68057974E-02
  0.579999983     -0.107745737
  0.615000010     -0.228469759
  0.649999976     -0.309530586
  0.685000002     -0.343681812
  0.720000029     -0.332131028
  0.754999995     -0.282708943
  0.790000021     -0.207406387
  0.824999988     -0.120114930
  0.860000014      -3.48507315E-02
  0.894999981       3.58050130E-02
  0.930000007       8.24123546E-02
  0.964999974      0.100462750
   1.00000000       9.16481316E-02
   1.03499997       6.37639388E-02
   1.07000005       2.86985859E-02
   1.10500002      -1.19408988E-03
   1.13999999      -1.71098839E-02
   1.17499995      -1.65679120E-02
   1.21000004      -3.68631491E-03
   1.24500000       1.32455966E-02
   1.27999997       2.57972833E-02
   1.31500006       2.91344877E-02
   1.35000002       2.37534102E-02
   1.38499999       1.44844074E-02
   1.41999996       7.38989608E-03
   1.45500004       6.27124915E-03
   1.49000001       1.06397737E-02
   1.52499998       1.61446594E-02
   1.55999994       1.71604175E-02
   1.59500003       1.01179974E-02
   1.63000000      -4.24500182E-03
