 -0.959999979       0.00000000
 -0.925000012       0.00000000
 -0.889999986       3.11483188E-24
 -0.855000019      -1.73957257E-14
 -0.819999993       1.01835436E-15
 -0.785000026       1.52958917E-13
 -0.750000000       3.60124148E-13
 -0.714999974       2.21199036E-12
 -0.680000007       3.51300521E-12
 -0.644999981      -4.20902375E-12
 -0.610000014      -1.32327970E-12
 -0.574999988       2.43475465E-12
 -0.540000021      -1.65690413E-11
 -0.504999995      -6.35682063E-11
 -0.469999999      -7.24178703E-11
 -0.435000002       7.13843290E-11
 -0.400000006       2.19371299E-10
 -0.365000010       4.27734459E-10
 -0.330000013       1.61787236E-10
 -0.294999987       9.19960719E-10
 -0.259999990      -4.70943784E-10
 -0.224999994      -1.36006495E-09
 -0.189999998      -4.74992892E-11
 -0.155000001      -3.99026412E-09
 -0.119999997      -5.61401459E-09
  -8.50000009E-02   3.57179786E-10
  -5.00000007E-02   9.06835940E-09
  -1.49999997E-02   5.06401676E-09
   1.99999996E-02   1.95067829E-09
   5.49999997E-02  -9.08814413E-10
   9.00000036E-02  -9.46863388E-09
  0.125000000      -9.33080635E-09
  0.159999996       1.13752598E-10
  0.194999993       2.85987367E-09
  0.230000004      -5.12980103E-10
  0.264999986       5.25442967E-10
  0.300000012       4.06618650E-09
  0.335000008      -1.19894397E-08
  0.370000005      -6.48364429E-09
  0.405000001       1.25515163E-08
  0.439999998       1.82902404E-08
  0.474999994       9.83737536E-09
  0.509999990       2.11686615E-08
  0.545000017       1.82110256E-08
  0.579999983      -1.20266930E-09
  0.615000010       8.49512993E-09
  0.649999976       2.08550937E-08
  0.685000002      -3.01423881E-08
  0.720000029      -5.34474971E-08
  0.754999995      -1.23578348E-08
  0.790000021      -3.85791381E-08
  0.824999988      -6.27181080E-08
  0.860000014      -1.15160832E-08
  0.894999981       2.20989786E-08
  0.930000007      -2.03120631E-09
  0.964999974      -4.65788341E-09
   1.00000000      -1.77332939E-08
   1.03499997      -3.60110342E-08
   1.07000005      -5.65704983E-10
   1.10500002       2.22779981E-08
   1.13999999      -9.62285185E-09
   1.17499995       1.82522331E-10
   1.21000004       2.92315452E-08
   1.24500000      -1.72863306E-08
   1.27999997      -6.10750845E-08
   1.31500006      -1.87605487E-08
   1.35000002       2.51835850E-08
   1.38499999       7.20623916E-09
   1.41999996      -1.55287694E-08
   1.45500004      -3.54641672E-09
   1.49000001       8.55330917E-09
   1.52499998      -9.19779086E-10
   1.55999994      -3.52184304E-09
   1.59500003       1.53334874E-08
   1.63000000       1.66512120E-08
