 -0.959999979       0.00000000
 -0.925000012       1.24653443E-19
 -0.889999986       0.00000000
 -0.855000019      -4.25746868E-11
 -0.819999993       1.34511249E-10
 -0.785000026      -8.44262993E-11
 -0.750000000      -1.40342460E-09
 -0.714999974       2.03349670E-09
 -0.680000007       8.27473333E-12
 -0.644999981      -7.34096739E-09
 -0.610000014       5.74270658E-08
 -0.574999988      -9.58975264E-08
 -0.540000021       3.45952422E-08
 -0.504999995       1.16390737E-07
 -0.469999999      -2.43861194E-07
 -0.435000002      -6.45126264E-08
 -0.400000006       6.36700236E-07
 -0.365000010      -5.32896252E-07
 -0.330000013      -3.78841094E-07
 -0.294999987       8.31780596E-07
 -0.259999990       1.11573809E-06
 -0.224999994      -1.66567349E-06
 -0.189999998      -7.31391339E-08
 -0.155000001      -7.16976160E-07
 -0.119999997       9.98589144E-07
  -8.50000009E-02  -7.56630101E-08
  -5.00000007E-02  -1.56103539E-07
  -1.49999997E-02  -3.48525668E-06
   1.99999996E-02   1.07769957E-07
   5.49999997E-02   6.68153632E-07
   9.00000036E-02   2.07697176E-05
  0.125000000      -1.08505519E-05
  0.159999996      -2.90618500E-05
  0.194999993       2.36991527E-05
  0.230000004      -6.72640726E-06
  0.264999986      -1.08368267E-05
  0.300000012       2.02317078E-05
  0.335000008       3.71490860E-05
  0.370000005      -1.53991932E-05
  0.405000001      -4.87569196E-05
  0.439999998       7.53034055E-06
  0.474999994      -1.41985925E-06
  0.509999990       1.34492957E-05
  0.545000017       1.09445336E-05
  0.579999983      -7.62064610E-06
  0.615000010       7.62539048E-06
  0.649999976      -1.20367786E-05
  0.685000002      -9.29892121E-06
  0.720000029       2.43120326E-06
  0.754999995       3.21634325E-05
  0.790000021      -4.27989726E-05
  0.824999988      -1.30629232E-05
  0.860000014       8.59656793E-05
  0.894999981       1.57410122E-05
  0.930000007      -8.52679586E-05
  0.964999974      -3.58670732E-05
   1.00000000       5.42087182E-05
   1.03499997       1.94933837E-05
   1.07000005      -2.82903384E-05
   1.10500002       5.38031736E-06
   1.13999999       2.15615710E-05
   1.17499995      -7.67149777E-06
   1.21000004      -1.80104998E-05
   1.24500000      -1.75948626E-05
   1.27999997      -9.41037342E-06
   1.31500006       3.85466155E-05
   1.35000002       4.64677105E-05
   1.38499999      -2.50850189E-05
   1.41999996      -4.86236167E-05
   1.45500004       1.33412195E-05
   1.49000001       2.54855695E-05
   1.52499998      -2.55388823E-05
   1.55999994      -4.51498590E-06
   1.59500003       4.43578174E-05
   1.63000000      -7.08205607E-06
