 -0.959999979      -9.75056992E-06
 -0.925000012      -1.56809583E-05
 -0.889999986      -1.14532604E-05
 -0.855000019      -3.35510922E-05
 -0.819999993      -9.46218352E-05
 -0.785000026      -1.86727499E-04
 -0.750000000      -3.18906910E-04
 -0.714999974      -5.14343847E-04
 -0.680000007      -8.03144008E-04
 -0.644999981      -1.16797478E-03
 -0.610000014      -1.45485892E-03
 -0.574999988      -1.40395178E-03
 -0.540000021      -7.17306975E-04
 -0.504999995       9.95198148E-04
 -0.469999999       4.14698943E-03
 -0.435000002       8.81836005E-03
 -0.400000006       1.44300517E-02
 -0.365000010       1.95509270E-02
 -0.330000013       2.16869731E-02
 -0.294999987       1.74791664E-02
 -0.259999990       3.81275360E-03
 -0.224999994      -2.06783544E-02
 -0.189999998      -5.45848235E-02
 -0.155000001      -9.34728906E-02
 -0.119999997     -0.130827427
  -8.50000009E-02 -0.160917655
  -5.00000007E-02 -0.183149084
  -1.49999997E-02 -0.205772176
   1.99999996E-02 -0.246474072
   5.49999997E-02 -0.328085542
   9.00000036E-02 -0.468787163
  0.125000000     -0.668563962
  0.159999996     -0.896878481
  0.194999993      -1.08814895
  0.230000004      -1.15018654
  0.264999986     -0.986834109
  0.300000012     -0.530441940
  0.335000008      0.225910410
  0.370000005       1.20912266
  0.405000001       2.26945615
  0.439999998       3.20878577
  0.474999994       3.82679439
  0.509999990       3.97103119
  0.545000017       3.57525063
  0.579999983       2.67548680
  0.615000010       1.40146625
  0.649999976      -5.19939177E-02
  0.685000002      -1.46482706
  0.720000029      -2.63329768
  0.754999995      -3.40577197
  0.790000021      -3.70716763
  0.824999988      -3.54755783
  0.860000014      -3.01255441
  0.894999981      -2.23781514
  0.930000007      -1.37507784
  0.964999974     -0.559696198
   1.00000000      0.111315206
   1.03499997      0.586492538
   1.07000005      0.855110168
   1.10500002      0.937508464
   1.13999999      0.876300395
   1.17499995      0.729112685
   1.21000004      0.559791148
   1.24500000      0.425502300
   1.27999997      0.361429781
   1.31500006      0.369701535
   1.35000002      0.420198292
   1.38499999      0.465535879
   1.41999996      0.463817835
   1.45500004      0.397160828
   1.49000001      0.275951326
   1.52499998      0.127554595
   1.55999994      -2.18314193E-02
   1.59500003     -0.159432977
   1.63000000     -0.284550846
