 -0.959999979       0.00000000
 -0.925000012       0.00000000
 -0.889999986      -1.49852447E-22
 -0.855000019      -2.99704893E-22
 -0.819999993      -6.01897479E-14
 -0.785000026       2.63966529E-13
 -0.750000000      -7.90262658E-13
 -0.714999974       1.79035953E-12
 -0.680000007       1.75029153E-12
 -0.644999981       7.05081089E-12
 -0.610000014      -8.50270483E-13
 -0.574999988      -1.07681919E-11
 -0.540000021      -2.31702635E-12
 -0.504999995      -2.76796346E-11
 -0.469999999      -1.47955329E-11
 -0.435000002      -1.44636345E-10
 -0.400000006       8.05521136E-11
 -0.365000010       1.09490035E-10
 -0.330000013      -4.99309094E-10
 -0.294999987       1.40014944E-10
 -0.259999990      -4.81160833E-10
 -0.224999994      -1.44432821E-09
 -0.189999998       8.13367984E-10
 -0.155000001       2.89231833E-10
 -0.119999997      -1.76832160E-09
  -8.50000009E-02   8.87160123E-10
  -5.00000007E-02   3.10518367E-09
  -1.49999997E-02   1.20471155E-09
   1.99999996E-02  -4.02702094E-09
   5.49999997E-02  -6.13591444E-09
   9.00000036E-02  -1.14534504E-09
  0.125000000      -1.27719479E-08
  0.159999996      -1.33618228E-08
  0.194999993       2.27663559E-08
  0.230000004       2.84050810E-08
  0.264999986      -1.43303360E-08
  0.300000012      -1.56071671E-08
  0.335000008       2.46815812E-08
  0.370000005       1.18296484E-08
  0.405000001      -4.03787652E-08
  0.439999998      -1.68046430E-08
  0.474999994       5.60813831E-08
  0.509999990       5.49870016E-09
  0.545000017      -4.91677916E-08
  0.579999983       1.64349760E-08
  0.615000010       5.80091317E-08
  0.649999976      -9.41660971E-09
  0.685000002      -2.62236739E-08
  0.720000029       6.03867747E-08
  0.754999995       7.59513767E-08
  0.790000021      -5.28954436E-09
  0.824999988      -3.07829850E-08
  0.860000014      -2.31070842E-08
  0.894999981      -7.93201878E-08
  0.930000007      -8.58262936E-08
  0.964999974       3.92716757E-08
   1.00000000       1.20105398E-07
   1.03499997       4.13835046E-08
   1.07000005      -5.31626867E-08
   1.10500002      -5.24732151E-08
   1.13999999      -8.27515123E-09
   1.17499995       2.53178136E-08
   1.21000004       3.50550096E-08
   1.24500000       2.68660258E-08
   1.27999997       8.22674195E-09
   1.31500006      -4.48811086E-08
   1.35000002      -1.10039451E-07
   1.38499999      -8.34731750E-08
   1.41999996       2.76075340E-08
   1.45500004       8.39502547E-08
   1.49000001       4.10476595E-08
   1.52499998      -2.63463851E-09
   1.55999994      -1.85208116E-08
   1.59500003      -2.33149393E-08
   1.63000000       1.57858313E-08
