 -0.959999979       0.00000000
 -0.925000012       0.00000000
 -0.889999986      -1.72071267E-07
 -0.855000019      -1.94148924E-06
 -0.819999993      -5.00256601E-06
 -0.785000026      -8.94550340E-06
 -0.750000000      -1.98639027E-05
 -0.714999974      -4.68804610E-05
 -0.680000007      -9.82942220E-05
 -0.644999981      -1.92882726E-04
 -0.610000014      -3.66944325E-04
 -0.574999988      -6.67829940E-04
 -0.540000021      -1.15455291E-03
 -0.504999995      -1.89705100E-03
 -0.469999999      -2.95281666E-03
 -0.435000002      -4.33865003E-03
 -0.400000006      -6.00330904E-03
 -0.365000010      -7.77835445E-03
 -0.330000013      -9.33855958E-03
 -0.294999987      -1.02299899E-02
 -0.259999990      -9.95597802E-03
 -0.224999994      -8.10005423E-03
 -0.189999998      -4.50895773E-03
 -0.155000001       5.03540272E-04
 -0.119999997       6.04486419E-03
  -8.50000009E-02   1.06708556E-02
  -5.00000007E-02   1.25406962E-02
  -1.49999997E-02   9.71041527E-03
   1.99999996E-02   5.07738208E-04
   5.49999997E-02  -1.61681212E-02
   9.00000036E-02  -4.06907350E-02
  0.125000000      -7.26201907E-02
  0.159999996     -0.110612661
  0.194999993     -0.152266234
  0.230000004     -0.193832874
  0.264999986     -0.229899958
  0.300000012     -0.253384352
  0.335000008     -0.256177634
  0.370000005     -0.230573535
  0.405000001     -0.171344370
  0.439999998      -7.79517666E-02
  0.474999994       4.39416505E-02
  0.509999990      0.182388291
  0.545000017      0.320741475
  0.579999983      0.440595120
  0.615000010      0.525275111
  0.649999976      0.562856138
  0.685000002      0.547974885
  0.720000029      0.482296526
  0.754999995      0.373913199
  0.790000021      0.236079305
  0.824999988       8.55877176E-02
  0.860000014      -5.91927879E-02
  0.894999981     -0.180779353
  0.930000007     -0.265457213
  0.964999974     -0.306006968
   1.00000000     -0.303371221
   1.03499997     -0.266411066
   1.07000005     -0.209420428
   1.10500002     -0.147970781
   1.13999999      -9.45146754E-02
   1.17499995      -5.54207899E-02
   1.21000004      -3.05649061E-02
   1.24500000      -1.54962847E-02
   1.27999997      -5.01380395E-03
   1.31500006       3.68469325E-03
   1.35000002       9.84199904E-03
   1.38499999       1.04256254E-02
   1.41999996       2.98514566E-03
   1.45500004      -1.16487779E-02
   1.49000001      -2.85076536E-02
   1.52499998      -4.01627421E-02
   1.55999994      -4.01853994E-02
   1.59500003      -2.65763849E-02
   1.63000000      -3.27307801E-03
