 -0.800000012       0.00000000
 -0.788999975       0.00000000
 -0.777999997       0.00000000
 -0.767000020       0.00000000
 -0.755999982       4.09021452E-26
 -0.745000005       1.92965045E-18
 -0.734000027      -3.08363086E-16
 -0.722999990      -1.54745561E-16
 -0.712000012       6.94870255E-16
 -0.700999975       1.20603653E-15
 -0.689999998      -4.32357888E-15
 -0.679000020      -5.87211351E-15
 -0.667999983      -1.23311599E-14
 -0.657000005       1.07251939E-14
 -0.646000028      -4.73702159E-15
 -0.634999990      -6.52237562E-15
 -0.624000013       3.06130413E-14
 -0.612999976      -5.45280983E-14
 -0.601999998      -1.23128639E-13
 -0.591000021      -1.24574762E-14
 -0.579999983       6.60469604E-14
 -0.569000006       4.40771382E-15
 -0.558000028       3.91633273E-14
 -0.546999991      -1.20698549E-13
 -0.536000013       1.43160196E-13
 -0.524999976       3.42610434E-13
 -0.513999999      -3.81356567E-13
 -0.503000021      -1.25267567E-13
 -0.492000014       9.62798201E-13
 -0.481000006      -9.57538302E-13
 -0.469999999      -2.18008792E-12
 -0.458999991       2.02468424E-12
 -0.448000014       3.05551266E-12
 -0.437000006      -2.10955255E-12
 -0.425999999      -1.53524600E-12
 -0.414999992       2.82733494E-12
 -0.404000014      -4.84815400E-12
 -0.393000007      -2.78890496E-12
 -0.381999999       9.05121811E-12
 -0.370999992       2.13672981E-12
 -0.360000014      -5.73138195E-12
 -0.349000007       6.86222650E-12
 -0.338000000      -1.59410419E-11
 -0.326999992       2.19203085E-12
 -0.316000015       7.81618104E-11
 -0.305000007      -4.08802679E-11
 -0.294000000      -1.36623018E-10
 -0.282999992       1.09851579E-10
 -0.272000015       7.57575322E-11
 -0.261000007      -1.70016085E-10
 -0.250000000       1.82147783E-10
 -0.238999993       2.10396797E-10
 -0.228000000      -6.35071606E-10
 -0.216999993      -3.44552553E-10
 -0.206000000       8.07702349E-10
 -0.194999993       2.92974839E-10
 -0.184000000      -3.16697391E-10
 -0.172999993       4.06526646E-10
 -0.162000000      -2.52645321E-10
 -0.150999993      -1.04610476E-09
 -0.140000001       4.38289210E-10
 -0.128999993       1.12113052E-09
 -0.118000001      -7.86264498E-10
 -0.107000001      -9.09806175E-10
  -9.60000008E-02   2.70223011E-10
  -8.50000009E-02   5.52206836E-10
  -7.40000010E-02   1.66806191E-09
  -6.30000010E-02   3.54344953E-09
  -5.20000011E-02  -9.46265177E-10
  -4.10000011E-02  -4.16187440E-09
  -2.99999993E-02   1.07169806E-09
  -1.89999994E-02   6.03452266E-09
  -8.00000038E-03   1.40766832E-09
   3.00000003E-03  -6.01968309E-10
   1.40000004E-02  -2.44762477E-09
   2.50000004E-02  -7.95733968E-09
   3.59999985E-02  -7.48849516E-09
   4.69999984E-02  -1.63206670E-10
   5.79999983E-02   7.98435451E-09
   6.89999983E-02   5.84654491E-10
   7.99999982E-02  -1.16267840E-09
   9.09999982E-02   4.89955632E-09
  0.101999998       3.80647602E-09
  0.112999998      -3.16002913E-09
  0.123999998       6.68620714E-09
  0.135000005       1.27884299E-08
  0.145999998       1.51508872E-09
  0.157000005      -1.62637370E-08
  0.167999998      -1.69538197E-08
  0.179000005      -3.06844727E-09
  0.189999998       1.51357131E-08
  0.201000005       1.18174741E-08
  0.211999997      -1.51939634E-08
  0.223000005      -1.48370649E-08
  0.233999997       2.23738752E-08
  0.245000005       2.17663008E-08
  0.256000012      -2.54073882E-08
  0.266999990      -3.34428627E-08
  0.277999997      -9.06751207E-09
  0.289000005       1.58854896E-09
  0.300000012       3.06855306E-08
  0.310999990       4.78077560E-08
  0.321999997       1.36386635E-08
  0.333000004      -1.24451871E-08
  0.344000012      -2.76229049E-08
  0.354999989      -2.10800994E-08
  0.365999997       7.58018892E-09
  0.377000004       5.26938280E-08
  0.388000011       1.91209626E-08
  0.398999989      -4.65373731E-08
  0.409999996      -5.46188907E-08
  0.421000004      -3.26618732E-08
  0.432000011      -1.99238617E-08
  0.442999989      -7.15670412E-09
  0.453999996       1.53179300E-08
  0.465000004       5.01714332E-08
  0.476000011       9.92955833E-08
  0.486999989       6.05641546E-08
  0.497999996      -2.08177564E-08
  0.509000003      -9.57228892E-08
  0.519999981      -6.20210159E-08
  0.531000018       5.33580335E-09
  0.541999996       1.69391168E-08
  0.552999973       4.46242936E-08
  0.564000010       9.16265748E-08
  0.574999988       1.51636392E-08
  0.586000025      -8.91461767E-08
  0.597000003      -4.04300131E-08
  0.607999980      -8.28327895E-09
  0.619000018      -4.88359362E-08
  0.629999995       2.48710919E-08
  0.640999973       5.06321811E-08
  0.652000010      -8.19082189E-08
  0.662999988      -8.16248331E-08
  0.674000025       4.11125356E-08
  0.685000002      -1.96866115E-08
  0.695999980      -8.38048990E-08
  0.707000017       3.18850297E-08
  0.717999995       9.30368742E-08
  0.728999972       1.68552567E-08
  0.740000010      -2.02729620E-08
  0.750999987       1.23603634E-08
  0.762000024       6.80304879E-08
  0.773000002       1.77573956E-08
  0.783999979      -7.75311833E-08
  0.795000017       9.71120162E-09
  0.805999994       1.38702845E-07
  0.816999972      -4.04650748E-08
  0.828000009      -2.08147512E-07
  0.838999987       2.02532602E-10
  0.850000024       1.52329790E-07
  0.861000001       1.56269788E-08
  0.871999979      -1.08971525E-08
  0.883000016       5.28355066E-08
  0.893999994      -4.53263347E-08
  0.904999971      -7.87937893E-08
  0.916000009       3.55384238E-08
  0.926999986       5.13862375E-08
  0.938000023       1.43714178E-08
  0.949000001       8.26688549E-08
  0.959999979       6.80636205E-08
  0.971000016      -9.38751228E-08
  0.981999993      -1.51642780E-07
  0.992999971       3.85298016E-09
   1.00399995       1.44067442E-07
   1.01499999       5.95030727E-08
   1.02600002      -6.16307005E-08
   1.03699994      -1.73098442E-08
   1.04799998       2.61105573E-08
   1.05900002      -9.19712448E-08
   1.07000005      -1.58821479E-07
   1.08099997      -2.55143231E-08
   1.09200001       1.14531062E-07
   1.10300004       9.42851983E-08
   1.11399996       7.90744270E-09
   1.12500000      -1.31917206E-08
   1.13600004       5.83551119E-09
   1.14699996      -6.08807085E-08
   1.15799999      -1.66038092E-07
   1.16900003      -7.32827417E-08
   1.17999995       1.56510353E-07
   1.19099998       1.84883277E-07
   1.20200002       2.80192456E-08
   1.21300006      -6.60629809E-08
   1.22399998      -1.19345273E-07
   1.23500001      -1.34234554E-07
   1.24600005      -1.15817294E-08
   1.25699997       6.66573783E-08
   1.26800001      -5.64998714E-09
   1.27900004       1.12927356E-08
   1.28999996       8.72120722E-08
   1.30100000      -2.88648181E-08
   1.31200004      -1.52160894E-07
   1.32299995      -2.82279888E-08
   1.33399999       1.26469430E-07
   1.34500003       7.34890762E-08
   1.35599995      -7.29123215E-08
   1.36699998      -9.51112540E-08
   1.37800002       3.52453355E-08
   1.38900006       8.17546066E-08
