 -0.959999979      -5.57175488E-04
 -0.925000012       2.18296176E-04
 -0.889999986       2.32865314E-05
 -0.855000019      -1.28601980E-03
 -0.819999993      -2.20373669E-03
 -0.785000026      -3.05944402E-03
 -0.750000000      -4.49366402E-03
 -0.714999974      -6.67415187E-03
 -0.680000007      -9.82870627E-03
 -0.644999981      -1.10187856E-02
 -0.610000014      -5.37458155E-03
 -0.574999988       8.28355551E-03
 -0.540000021       3.09533756E-02
 -0.504999995       6.69042543E-02
 -0.469999999      0.113198265
 -0.435000002      0.153737009
 -0.400000006      0.166931123
 -0.365000010      0.125690401
 -0.330000013      -3.63039644E-03
 -0.294999987     -0.236815512
 -0.259999990     -0.544122100
 -0.224999994     -0.855369627
 -0.189999998      -1.08214355
 -0.155000001      -1.14003313
 -0.119999997     -0.994512320
  -8.50000009E-02 -0.724928916
  -5.00000007E-02 -0.545437396
  -1.49999997E-02 -0.747310877
   1.99999996E-02  -1.57851160
   5.49999997E-02  -3.08500171
   9.00000036E-02  -4.95509291
  0.125000000      -6.46072340
  0.159999996      -6.58581734
  0.194999993      -4.34391880
  0.230000004      0.798916459
  0.264999986       8.53550243
  0.300000012       17.5440502
  0.335000008       25.6760807
  0.370000005       30.5074711
  0.405000001       30.0830059
  0.439999998       23.5929775
  0.474999994       11.7218046
  0.509999990      -3.47969651
  0.545000017      -19.1363297
  0.579999983      -32.2787361
  0.615000010      -40.5224342
  0.649999976      -42.5324364
  0.685000002      -38.2008820
  0.720000029      -28.5688667
  0.754999995      -15.5725279
  0.790000021      -1.65007186
  0.824999988       10.7706356
  0.860000014       19.8009815
  0.894999981       24.4698315
  0.930000007       24.8294468
  0.964999974       21.7637939
   1.00000000       16.5797157
   1.03499997       10.5732727
   1.07000005       4.77630758
   1.10500002      -6.78326637E-02
   1.13999999      -3.42976975
   1.17499995      -4.98095608
   1.21000004      -4.69456148
   1.24500000      -2.97908735
   1.27999997     -0.682200491
   1.31500006       1.15487087
   1.35000002       1.73065770
   1.38499999      0.860062957
   1.41999996     -0.958237886
   1.45500004      -2.85073400
   1.49000001      -4.07552290
   1.52499998      -4.40429020
   1.55999994      -4.13205385
   1.59500003      -3.73089242
   1.63000000      -3.41869998
