 -0.959999979       0.00000000
 -0.925000012       0.00000000
 -0.889999986       1.49852447E-22
 -0.855000019       2.99704893E-22
 -0.819999993       1.49879255E-13
 -0.785000026       1.63314661E-13
 -0.750000000      -6.39376030E-13
 -0.714999974       6.87344225E-13
 -0.680000007       9.23420411E-13
 -0.644999981       1.70855832E-12
 -0.610000014       1.31770604E-12
 -0.574999988      -7.29749421E-12
 -0.540000021       1.24178957E-11
 -0.504999995       2.21945379E-11
 -0.469999999       1.56160397E-11
 -0.435000002      -2.90756395E-11
 -0.400000006      -3.05121289E-10
 -0.365000010       2.11689569E-10
 -0.330000013       9.69743730E-11
 -0.294999987      -2.00804109E-10
 -0.259999990       6.98822611E-10
 -0.224999994       8.94525565E-10
 -0.189999998      -1.63630365E-09
 -0.155000001      -9.21698051E-10
 -0.119999997       9.58009672E-10
  -8.50000009E-02   2.80553736E-09
  -5.00000007E-02   4.01308009E-09
  -1.49999997E-02  -9.78467640E-10
   1.99999996E-02  -3.94644850E-09
   5.49999997E-02  -2.17786136E-10
   9.00000036E-02   4.36309300E-09
  0.125000000       1.28504551E-09
  0.159999996       4.57243443E-09
  0.194999993       4.50474991E-09
  0.230000004      -7.10496817E-09
  0.264999986      -2.39028672E-08
  0.300000012      -3.70774211E-09
  0.335000008      -6.40101216E-09
  0.370000005      -8.09300627E-09
  0.405000001       2.28764989E-08
  0.439999998       4.52477202E-08
  0.474999994       1.23706645E-08
  0.509999990       7.05881131E-09
  0.545000017       3.95476256E-08
  0.579999983      -3.15275628E-09
  0.615000010      -4.35676704E-08
  0.649999976       3.30438148E-08
  0.685000002       5.39296963E-08
  0.720000029      -1.66567595E-08
  0.754999995      -1.06801057E-08
  0.790000021       1.40223397E-08
  0.824999988      -5.72879912E-08
  0.860000014      -7.83147840E-08
  0.894999981       3.34845289E-08
  0.930000007       6.95609899E-08
  0.964999974      -2.48478997E-08
   1.00000000      -5.72786547E-08
   1.03499997      -6.16465234E-09
   1.07000005      -3.73367337E-09
   1.10500002      -4.17581454E-08
   1.13999999      -1.17762990E-08
   1.17499995       5.77223531E-08
   1.21000004       5.84344377E-08
   1.24500000      -1.66829981E-08
   1.27999997      -5.63720626E-08
   1.31500006      -1.11763523E-08
   1.35000002       2.88971158E-08
   1.38499999       1.78047461E-08
   1.41999996       1.58359850E-08
   1.45500004       1.30057067E-08
   1.49000001      -3.21026725E-08
   1.52499998      -4.32409024E-08
   1.55999994       1.63438187E-08
   1.59500003       4.34392646E-08
   1.63000000       8.22303292E-09
