 -0.959999979       0.00000000
 -0.925000012       0.00000000
 -0.889999986       3.03326899E-24
 -0.855000019      -6.42743991E-09
 -0.819999993      -1.02968130E-07
 -0.785000026      -2.40418757E-07
 -0.750000000      -2.50851514E-07
 -0.714999974      -4.90146306E-07
 -0.680000007      -1.62888637E-06
 -0.644999981      -3.63728805E-06
 -0.610000014      -6.36296909E-06
 -0.574999988      -1.08772083E-05
 -0.540000021      -1.89035400E-05
 -0.504999995      -3.17295926E-05
 -0.469999999      -5.02780276E-05
 -0.435000002      -7.46418445E-05
 -0.400000006      -1.03530794E-04
 -0.365000010      -1.35427181E-04
 -0.330000013      -1.69157487E-04
 -0.294999987      -2.03676012E-04
 -0.259999990      -2.42660739E-04
 -0.224999994      -3.04884627E-04
 -0.189999998      -4.35724971E-04
 -0.155000001      -7.20549608E-04
 -0.119999997      -1.30208256E-03
  -8.50000009E-02  -2.39458936E-03
  -5.00000007E-02  -4.28378256E-03
  -1.49999997E-02  -7.30202952E-03
   1.99999996E-02  -1.17639154E-02
   5.49999997E-02  -1.78512670E-02
   9.00000036E-02  -2.54581831E-02
  0.125000000      -3.40298377E-02
  0.159999996      -4.24503796E-02
  0.194999993      -4.90534827E-02
  0.230000004      -5.18142134E-02
  0.264999986      -4.87213321E-02
  0.300000012      -3.82611603E-02
  0.335000008      -1.98932681E-02
  0.370000005       5.62873902E-03
  0.405000001       3.62085104E-02
  0.439999998       6.86535761E-02
  0.474999994       9.91432965E-02
  0.509999990      0.123797588
  0.545000017      0.139223322
  0.579999983      0.142951474
  0.615000010      0.133742288
  0.649999976      0.111774102
  0.685000002       7.87135586E-02
  0.720000029       3.76350209E-02
  0.754999995      -7.25219818E-03
  0.790000021      -5.10917827E-02
  0.824999988      -8.90515447E-02
  0.860000014     -0.117061794
  0.894999981     -0.132451683
  0.930000007     -0.134327769
  0.964999974     -0.123605631
   1.00000000     -0.102703653
   1.03499997      -7.50109553E-02
   1.07000005      -4.42923866E-02
   1.10500002      -1.41671160E-02
   1.13999999       1.22721912E-02
   1.17499995       3.27054672E-02
   1.21000004       4.57442105E-02
   1.24500000       5.10331243E-02
   1.27999997       4.92637455E-02
   1.31500006       4.20324989E-02
   1.35000002       3.15071680E-02
   1.38499999       1.99505445E-02
   1.41999996       9.24080610E-03
   1.45500004       5.61697467E-04
   1.49000001      -5.63147804E-03
   1.52499998      -9.40491818E-03
   1.55999994      -1.10549461E-02
   1.59500003      -1.09098032E-02
   1.63000000      -9.31030512E-03
