 -0.959999979       0.00000000
 -0.925000012      -6.58653096E-20
 -0.889999986       1.45800681E-11
 -0.855000019      -3.18717865E-11
 -0.819999993      -2.85981100E-10
 -0.785000026       4.33511248E-11
 -0.750000000       2.29977717E-10
 -0.714999974      -3.54283436E-10
 -0.680000007      -2.54710764E-09
 -0.644999981       8.20997670E-09
 -0.610000014      -2.91979330E-08
 -0.574999988       4.24236859E-08
 -0.540000021       6.81380286E-08
 -0.504999995      -6.82850470E-08
 -0.469999999      -9.33876834E-08
 -0.435000002       4.88895644E-08
 -0.400000006       8.90623753E-08
 -0.365000010      -2.78667244E-07
 -0.330000013       2.78925029E-07
 -0.294999987       8.69494500E-07
 -0.259999990      -2.20024731E-06
 -0.224999994       2.43193270E-08
 -0.189999998       4.26553152E-06
 -0.155000001      -1.07415167E-06
 -0.119999997      -4.22123685E-06
  -8.50000009E-02   2.27979149E-06
  -5.00000007E-02   1.99484180E-06
  -1.49999997E-02  -8.23897426E-06
   1.99999996E-02  -1.62565482E-06
   5.49999997E-02   1.00454272E-05
   9.00000036E-02   7.74343425E-06
  0.125000000      -7.13178406E-06
  0.159999996      -1.49100970E-06
  0.194999993       6.35131391E-06
  0.230000004      -9.83078644E-06
  0.264999986      -1.23701593E-05
  0.300000012       2.23376082E-05
  0.335000008      -4.09271252E-06
  0.370000005      -2.71591034E-05
  0.405000001       3.25720357E-05
  0.439999998       7.12300263E-08
  0.474999994      -2.42339775E-05
  0.509999990       1.55978250E-05
  0.545000017       1.33957874E-05
  0.579999983      -1.17216387E-05
  0.615000010      -6.20100673E-06
  0.649999976       1.46202756E-05
  0.685000002       1.79644655E-06
  0.720000029      -1.91260842E-05
  0.754999995      -4.88513933E-06
  0.790000021       1.09774965E-05
  0.824999988      -1.38086698E-05
  0.860000014      -5.70765269E-06
  0.894999981       2.76534392E-05
  0.930000007       1.38635905E-05
  0.964999974       7.83336600E-06
   1.00000000      -2.33613500E-05
   1.03499997      -2.46066538E-05
   1.07000005       1.03905786E-05
   1.10500002       9.43111900E-06
   1.13999999      -1.18821335E-05
   1.17499995       1.06686832E-06
   1.21000004       1.30555327E-05
   1.24500000       1.51912336E-05
   1.27999997      -9.52049413E-06
   1.31500006      -2.33949122E-05
   1.35000002      -2.40242593E-06
   1.38499999       2.45673200E-05
   1.41999996       7.13969439E-06
   1.45500004      -1.79155213E-05
   1.49000001      -1.13704446E-05
   1.52499998       1.24815379E-05
   1.55999994       1.18666594E-05
   1.59500003      -2.38176799E-05
   1.63000000      -1.94194436E-05
