 -0.959999979       0.00000000
 -0.925000012       3.58333843E-08
 -0.889999986       3.69247743E-07
 -0.855000019       1.62208403E-06
 -0.819999993       4.11819792E-06
 -0.785000026       6.86676185E-06
 -0.750000000       1.07858968E-05
 -0.714999974       2.49234854E-05
 -0.680000007       6.03382614E-05
 -0.644999981       1.16289157E-04
 -0.610000014       1.91578511E-04
 -0.574999988       3.07888869E-04
 -0.540000021       4.91037150E-04
 -0.504999995       7.32502027E-04
 -0.469999999       9.95204202E-04
 -0.435000002       1.23009761E-03
 -0.400000006       1.35419716E-03
 -0.365000010       1.24724710E-03
 -0.330000013       7.96924753E-04
 -0.294999987      -7.11760731E-05
 -0.259999990      -1.37118576E-03
 -0.224999994      -2.99385679E-03
 -0.189999998      -4.67866613E-03
 -0.155000001      -6.07045041E-03
 -0.119999997      -6.73380913E-03
  -8.50000009E-02  -6.05649268E-03
  -5.00000007E-02  -3.14780790E-03
  -1.49999997E-02   3.18223867E-03
   1.99999996E-02   1.42452894E-02
   5.49999997E-02   3.07719857E-02
   9.00000036E-02   5.14451116E-02
  0.125000000       7.09410906E-02
  0.159999996       7.82560110E-02
  0.194999993       5.64332455E-02
  0.230000004      -1.50757795E-02
  0.264999986     -0.154753923
  0.300000012     -0.370743155
  0.335000008     -0.652087450
  0.370000005     -0.962591648
  0.405000001      -1.24050856
  0.439999998      -1.40612912
  0.474999994      -1.37710619
  0.509999990      -1.08889973
  0.545000017     -0.515796006
  0.579999983      0.313120931
  0.615000010       1.30831361
  0.649999976       2.32768965
  0.685000002       3.19827294
  0.720000029       3.74857044
  0.754999995       3.84526324
  0.790000021       3.42551041
  0.824999988       2.51627970
  0.860000014       1.23490775
  0.894999981     -0.230494842
  0.930000007      -1.65709519
  0.964999974      -2.83139682
   1.00000000      -3.59036779
   1.03499997      -3.84988165
   1.07000005      -3.61477089
   1.10500002      -2.96986532
   1.13999999      -2.05603242
   1.17499995      -1.03844833
   1.21000004      -7.50275627E-02
   1.24500000      0.708875239
   1.27999997       1.23619187
   1.31500006       1.48330867
   1.35000002       1.47530711
   1.38499999       1.27326846
   1.41999996      0.956798911
   1.45500004      0.605707467
   1.49000001      0.284921229
   1.52499998       3.58321816E-02
   1.55999994     -0.124875590
   1.59500003     -0.200569496
   1.63000000     -0.207642719
