 -0.959999979       0.00000000
 -0.925000012       2.51002908E-21
 -0.889999986       5.24689312E-06
 -0.855000019       7.35618596E-05
 -0.819999993       3.33958233E-05
 -0.785000026      -1.03688115E-04
 -0.750000000       1.86826190E-04
 -0.714999974       7.34240806E-04
 -0.680000007       7.09928339E-04
 -0.644999981       5.85534668E-04
 -0.610000014       1.46003789E-03
 -0.574999988       2.86702416E-03
 -0.540000021       3.91815323E-03
 -0.504999995       4.67131380E-03
 -0.469999999       4.74733906E-03
 -0.435000002       3.69390892E-03
 -0.400000006       2.45484826E-03
 -0.365000010       1.49716507E-03
 -0.330000013       6.43923820E-04
 -0.294999987       3.64542613E-03
 -0.259999990       1.89707894E-02
 -0.224999994       5.60138039E-02
 -0.189999998      0.125699773
 -0.155000001      0.242211655
 -0.119999997      0.417125374
  -8.50000009E-02  0.650355220
  -5.00000007E-02  0.921670794
  -1.49999997E-02   1.17847550
   1.99999996E-02   1.32691729
   5.49999997E-02   1.24047279
   9.00000036E-02  0.787538052
  0.125000000     -0.123371035
  0.159999996      -1.48362374
  0.194999993      -3.13662386
  0.230000004      -4.77846384
  0.264999986      -6.01410389
  0.300000012      -6.45526409
  0.335000008      -5.84009600
  0.370000005      -4.12881136
  0.405000001      -1.52269781
  0.439999998       1.59619296
  0.474999994       4.76362038
  0.509999990       7.53353882
  0.545000017       9.54904652
  0.579999983       10.5610552
  0.615000010       10.4155302
  0.649999976       9.05499649
  0.685000002       6.54531670
  0.720000029       3.10912895
  0.754999995     -0.855235875
  0.790000021      -4.79988766
  0.824999988      -8.12202454
  0.860000014      -10.3023138
  0.894999981      -11.0316782
  0.930000007      -10.2842751
  0.964999974      -8.31009007
   1.00000000      -5.54341936
   1.03499997      -2.47007966
   1.07000005      0.484312713
   1.10500002       3.00888991
   1.13999999       4.90285921
   1.17499995       6.03639078
   1.21000004       6.32643986
   1.24500000       5.76190901
   1.27999997       4.45864487
   1.31500006       2.68900442
   1.35000002      0.841853321
   1.38499999     -0.691347599
   1.41999996      -1.65766609
   1.45500004      -2.02927184
   1.49000001      -1.97522163
   1.52499998      -1.73342061
   1.55999994      -1.46554577
   1.59500003      -1.18727601
   1.63000000     -0.816128612
