 -0.800000012       0.00000000
 -0.788999975       0.00000000
 -0.777999997       0.00000000
 -0.767000020       0.00000000
 -0.755999982       2.37337927E-09
 -0.745000005      -1.61121907E-08
 -0.734000027       7.37000576E-08
 -0.722999990      -2.05184080E-07
 -0.712000012       1.98596339E-07
 -0.700999975       5.40969438E-07
 -0.689999998      -1.90790797E-06
 -0.679000020       1.31481204E-06
 -0.667999983       4.23616575E-06
 -0.657000005      -9.61329988E-06
 -0.646000028      -4.30904265E-07
 -0.634999990       2.46372019E-05
 -0.624000013      -1.98063444E-05
 -0.612999976      -3.44677574E-05
 -0.601999998       5.22406990E-05
 -0.591000021       1.70611329E-05
 -0.579999983      -4.59850089E-05
 -0.569000006       3.78550067E-05
 -0.558000028      -1.19770622E-04
 -0.546999991      -1.01745514E-04
 -0.536000013       6.07279537E-04
 -0.524999976       1.15949442E-04
 -0.513999999      -1.49546133E-03
 -0.503000021      -5.52594283E-05
 -0.492000014       2.56109168E-03
 -0.481000006      -2.95876962E-05
 -0.469999999      -3.10024060E-03
 -0.458999991       1.42325429E-04
 -0.448000014       2.10990570E-03
 -0.437000006      -6.25519897E-04
 -0.425999999       8.72456410E-04
 -0.414999992       2.08545127E-03
 -0.404000014      -4.70291916E-03
 -0.393000007      -4.36612871E-03
 -0.381999999       7.01074395E-03
 -0.370999992       5.74716786E-03
 -0.360000014      -6.65857084E-03
 -0.349000007      -5.13272267E-03
 -0.338000000       3.93130444E-03
 -0.326999992       3.87950544E-03
 -0.316000015       2.75917840E-03
 -0.305000007       8.90895957E-04
 -0.294000000      -5.72645105E-03
 -0.282999992       9.17496101E-04
 -0.272000015       1.41894771E-02
 -0.261000007       2.67032534E-03
 -0.250000000      -1.17144780E-02
 -0.238999993       7.33620487E-03
 -0.228000000       2.53065079E-02
 -0.216999993       1.17421541E-02
 -0.206000000       3.81612265E-03
 -0.194999993       1.62605140E-02
 -0.184000000       2.31137890E-02
 -0.172999993       3.39162499E-02
 -0.162000000       5.68463244E-02
 -0.150999993       5.95479980E-02
 -0.140000001       5.10203578E-02
 -0.128999993       7.64473379E-02
 -0.118000001      0.119347312
 -0.107000001      0.142641589
  -9.60000008E-02  0.165316761
  -8.50000009E-02  0.203122750
  -7.40000010E-02  0.241560236
  -6.30000010E-02  0.292654335
  -5.20000011E-02  0.364694864
  -4.10000011E-02  0.427226096
  -2.99999993E-02  0.483387202
  -1.89999994E-02  0.569605887
  -8.00000038E-03  0.670614064
   3.00000003E-03  0.756642997
   1.40000004E-02  0.847353518
   2.50000004E-02  0.949328363
   3.59999985E-02   1.03968513
   4.69999984E-02   1.13264954
   5.79999983E-02   1.23784602
   6.89999983E-02   1.31079388
   7.99999982E-02   1.34053540
   9.09999982E-02   1.36754000
  0.101999998       1.38266361
  0.112999998       1.34524691
  0.123999998       1.26053929
  0.135000005       1.13309610
  0.145999998      0.940061271
  0.157000005      0.690804958
  0.167999998      0.400859118
  0.179000005       4.30020094E-02
  0.189999998     -0.391520321
  0.201000005     -0.871580839
  0.211999997      -1.39360487
  0.223000005      -1.96758044
  0.233999997      -2.56760406
  0.245000005      -3.17260790
  0.256000012      -3.78823471
  0.266999990      -4.39464474
  0.277999997      -4.95205975
  0.289000005      -5.44845867
  0.300000012      -5.88085938
  0.310999990      -6.22400570
  0.321999997      -6.45729208
  0.333000004      -6.57902384
  0.344000012      -6.57813883
  0.354999989      -6.43527746
  0.365999997      -6.15599918
  0.377000004      -5.75875521
  0.388000011      -5.24219608
  0.398999989      -4.60771608
  0.409999996      -3.88276291
  0.421000004      -3.08379889
  0.432000011      -2.20974326
  0.442999989      -1.28559566
  0.453999996     -0.346485466
  0.465000004      0.602955341
  0.476000011       1.55839109
  0.486999989       2.49928522
  0.497999996       3.42489600
  0.509000003       4.33878756
  0.519999981       5.22176695
  0.531000018       6.07297564
  0.541999996       6.91584063
  0.552999973       7.74728203
  0.564000010       8.55011368
  0.574999988       9.33086109
  0.586000025       10.0896244
  0.597000003       10.8062935
  0.607999980       11.4664965
  0.619000018       12.0541296
  0.629999995       12.5366430
  0.640999973       12.8790283
  0.652000010       13.0489454
  0.662999988       13.0133657
  0.674000025       12.7443457
  0.685000002       12.2116938
  0.695999980       11.3821602
  0.707000017       10.2403679
  0.717999995       8.78877926
  0.728999972       7.03600264
  0.740000010       5.00391865
  0.750999987       2.72921085
  0.762000024      0.257025331
  0.773000002      -2.35285449
  0.783999979      -5.02677965
  0.795000017      -7.68648195
  0.805999994      -10.2467566
  0.816999972      -12.6217346
  0.828000009      -14.7366810
  0.838999987      -16.5203896
  0.850000024      -17.9065552
  0.861000001      -18.8492870
  0.871999979      -19.3166714
  0.883000016      -19.2885914
  0.893999994      -18.7720280
  0.904999971      -17.7961521
  0.916000009      -16.3975067
  0.926999986      -14.6229773
  0.938000023      -12.5358067
  0.949000001      -10.2163286
  0.959999979      -7.75743008
  0.971000016      -5.24000120
  0.981999993      -2.73095107
  0.992999971     -0.310250372
   1.00399995       1.94534826
   1.01499999       3.98597908
   1.02600002       5.76281643
   1.03699994       7.22971630
   1.04799998       8.37779903
   1.05900002       9.21120739
   1.07000005       9.72094154
   1.08099997       9.92166424
   1.09200001       9.85153198
   1.10300004       9.53531837
   1.11399996       9.00685978
   1.12500000       8.32082748
   1.13600004       7.51112080
   1.14699996       6.60397673
   1.15799999       5.65353680
   1.16900003       4.70390224
   1.17999995       3.77094054
   1.19099998       2.88317966
   1.20200002       2.06882381
   1.21300006       1.32595158
   1.22399998      0.660449445
   1.23500001       9.84471068E-02
   1.24600005     -0.359124005
   1.25699997     -0.730686367
   1.26800001      -1.01836014
   1.27900004      -1.22434068
   1.28999996      -1.36411297
   1.30100000      -1.44449937
   1.31200004      -1.46989262
   1.32299995      -1.45763290
   1.33399999      -1.41691744
   1.34500003      -1.34488702
   1.35599995      -1.25255239
   1.36699998      -1.15561223
   1.37800002      -1.05204070
   1.38900006     -0.941916049
