 -0.959999979       0.00000000
 -0.925000012      -2.50932626E-05
 -0.889999986      -5.84242152E-05
 -0.855000019      -1.93209868E-04
 -0.819999993      -3.34945391E-04
 -0.785000026      -2.42198032E-04
 -0.750000000      -7.47213257E-04
 -0.714999974      -2.88279238E-03
 -0.680000007      -4.99210088E-03
 -0.644999981      -5.76258218E-03
 -0.610000014      -9.15931631E-03
 -0.574999988      -1.74619779E-02
 -0.540000021      -2.42907312E-02
 -0.504999995      -2.55929455E-02
 -0.469999999      -2.59008966E-02
 -0.435000002      -2.30912790E-02
 -0.400000006      -5.83142880E-03
 -0.365000010       2.73538735E-02
 -0.330000013       6.91288114E-02
 -0.294999987      0.119565979
 -0.259999990      0.177294359
 -0.224999994      0.229692861
 -0.189999998      0.274002999
 -0.155000001      0.327973068
 -0.119999997      0.409286648
  -8.50000009E-02  0.526576102
  -5.00000007E-02  0.678305805
  -1.49999997E-02  0.820694447
   1.99999996E-02  0.836896360
   5.49999997E-02  0.552642226
   9.00000036E-02 -0.223897293
  0.125000000      -1.65081871
  0.159999996      -3.76694298
  0.194999993      -6.39749527
  0.230000004      -9.10282516
  0.264999986      -11.1859770
  0.300000012      -11.7825747
  0.335000008      -10.0623865
  0.370000005      -5.49861240
  0.405000001       1.87939239
  0.439999998       11.3116035
  0.474999994       21.3000393
  0.509999990       29.8550663
  0.545000017       34.9422531
  0.579999983       34.9738655
  0.615000010       29.2291775
  0.649999976       18.1108398
  0.685000002       3.12793636
  0.720000029      -13.4001875
  0.754999995      -28.7877846
  0.790000021      -40.4635544
  0.824999988      -46.4549065
  0.860000014      -45.7964668
  0.894999981      -38.7257500
  0.930000007      -26.6030579
  0.964999974      -11.6040611
   1.00000000       3.73243093
   1.03499997       17.0227299
   1.07000005       26.4962273
   1.10500002       31.2367840
   1.13999999       31.1694965
   1.17499995       26.9175949
   1.21000004       19.6444511
   1.24500000       10.8672581
   1.27999997       2.20753765
   1.31500006      -4.88567352
   1.35000002      -9.40752888
   1.38499999      -11.0325308
   1.41999996      -10.1888132
   1.45500004      -7.84897184
   1.49000001      -5.10437155
   1.52499998      -2.75159645
   1.55999994      -1.09127629
   1.59500003      -2.85884202E-03
   1.63000000      0.783750176
