 -0.800000012       0.00000000
 -0.788999975       0.00000000
 -0.777999997       0.00000000
 -0.767000020       4.68860038E-28
 -0.755999982       7.79227595E-20
 -0.745000005      -1.45044152E-17
 -0.734000027       7.17334865E-17
 -0.722999990      -2.12278765E-16
 -0.712000012       6.19621965E-16
 -0.700999975       2.26531698E-15
 -0.689999998      -8.20788648E-15
 -0.679000020      -5.44937058E-16
 -0.667999983      -6.13795268E-15
 -0.657000005      -4.86813484E-14
 -0.646000028       9.58416696E-14
 -0.634999990       6.75916978E-14
 -0.624000013      -2.57448251E-13
 -0.612999976       3.59369489E-13
 -0.601999998      -2.39772937E-13
 -0.591000021      -1.78315110E-12
 -0.579999983       3.50874581E-12
 -0.569000006       4.13481966E-12
 -0.558000028      -1.19123262E-11
 -0.546999991      -5.95706253E-12
 -0.536000013       2.51952435E-11
 -0.524999976       4.27795429E-12
 -0.513999999      -4.04510175E-11
 -0.503000021       2.92400002E-12
 -0.492000014       5.80263927E-11
 -0.481000006      -7.43164644E-12
 -0.469999999      -9.09687187E-11
 -0.458999991      -1.26518128E-11
 -0.448000014       1.70669548E-10
 -0.437000006       7.09347858E-11
 -0.425999999      -3.24248711E-10
 -0.414999992      -1.30600683E-10
 -0.404000014       5.25554544E-10
 -0.393000007       1.18577384E-10
 -0.381999999      -6.69079070E-10
 -0.370999992      -7.64525509E-12
 -0.360000014       5.98074312E-10
 -0.349000007      -1.28119862E-10
 -0.338000000      -3.69617836E-10
 -0.326999992       4.93544615E-12
 -0.316000015       5.42367873E-10
 -0.305000007       6.23471441E-10
 -0.294000000      -2.15457252E-09
 -0.282999992      -1.60661595E-09
 -0.272000015       5.64362779E-09
 -0.261000007       2.21500351E-09
 -0.250000000      -9.71879643E-09
 -0.238999993      -2.19593721E-09
 -0.228000000       1.10493117E-08
 -0.216999993       2.78308643E-09
 -0.206000000      -6.74827838E-09
 -0.194999993      -7.45193951E-09
 -0.184000000      -5.08268938E-09
 -0.172999993       1.63738640E-08
 -0.162000000       2.32462156E-08
 -0.150999993      -2.09288054E-08
 -0.140000001      -4.11869259E-08
 -0.128999993       3.98424493E-09
 -0.118000001       3.99235205E-08
 -0.107000001       3.58432786E-08
  -9.60000008E-02  -9.59893498E-09
  -8.50000009E-02  -7.86673979E-08
  -7.40000010E-02  -4.48014426E-08
  -6.30000010E-02   9.57951798E-08
  -5.20000011E-02   1.06178433E-07
  -4.10000011E-02  -7.33804555E-08
  -2.99999993E-02  -1.64369581E-07
  -1.89999994E-02   1.11604086E-08
  -8.00000038E-03   2.23883859E-07
   3.00000003E-03   9.22665819E-08
   1.40000004E-02  -2.62001578E-07
   2.50000004E-02  -2.57031871E-07
   3.59999985E-02   1.01886030E-07
   4.69999984E-02   2.50145433E-07
   5.79999983E-02   2.13712212E-07
   6.89999983E-02   1.47539097E-07
   7.99999982E-02  -2.96156998E-07
   9.09999982E-02  -6.32344381E-07
  0.101999998       1.08719675E-07
  0.112999998       9.03597027E-07
  0.123999998       1.40751311E-07
  0.135000005      -9.26814437E-07
  0.145999998      -3.43258534E-07
  0.157000005       7.16656416E-07
  0.167999998       3.91364864E-07
  0.179000005      -4.30712021E-07
  0.189999998      -3.29876798E-07
  0.201000005      -6.07230746E-08
  0.211999997      -1.92855381E-07
  0.223000005       4.49174593E-07
  0.233999997       1.36281130E-06
  0.245000005       1.45116758E-07
  0.256000012      -2.04533444E-06
  0.266999990      -9.74213435E-07
  0.277999997       2.26021098E-06
  0.289000005       1.61463640E-06
  0.300000012      -2.33967216E-06
  0.310999990      -2.29334705E-06
  0.321999997       1.59596220E-06
  0.333000004       1.54947361E-06
  0.344000012      -1.65583901E-06
  0.354999989      -2.24996995E-07
  0.365999997       3.04905279E-06
  0.377000004       3.28018587E-07
  0.388000011      -3.08928429E-06
  0.398999989      -3.23820416E-07
  0.409999996       1.80510278E-06
  0.421000004      -4.88171054E-07
  0.432000011      -6.49713854E-07
  0.442999989       1.82989709E-06
  0.453999996       1.56905219E-06
  0.465000004      -1.13248404E-06
  0.476000011      -2.92373102E-06
  0.486999989      -1.35940547E-06
  0.497999996       1.85964711E-06
  0.509000003       7.42366467E-07
  0.519999981      -1.98023145E-06
  0.531000018       1.46716161E-06
  0.541999996       4.61317450E-06
  0.552999973      -1.61659443E-06
  0.564000010      -6.08289747E-06
  0.574999988       7.83354039E-07
  0.586000025       5.59903629E-06
  0.597000003      -1.68429381E-07
  0.607999980      -4.13047155E-06
  0.619000018      -5.05904609E-07
  0.629999995       1.55588225E-06
  0.640999973      -4.99804393E-08
  0.652000010       1.00931823E-06
  0.662999988       2.43151430E-06
  0.674000025      -2.47651883E-06
  0.685000002      -8.36899744E-06
  0.695999980      -3.16646401E-06
  0.707000017       9.41053986E-06
  0.717999995       9.31928480E-06
  0.728999972      -3.60860713E-06
  0.740000010      -7.64954348E-06
  0.750999987       2.31038007E-06
  0.762000024       7.04624290E-06
  0.773000002      -3.42921226E-06
  0.783999979      -9.45575903E-06
  0.795000017       2.76937590E-06
  0.805999994       9.97122424E-06
  0.816999972      -5.18877823E-06
  0.828000009      -1.21124931E-05
  0.838999987       8.91618311E-06
  0.850000024       2.07477133E-05
  0.861000001      -2.70503023E-07
  0.871999979      -1.91196959E-05
  0.883000016      -1.06904599E-05
  0.893999994       5.99615851E-06
  0.904999971       1.30828630E-05
  0.916000009       5.26623990E-06
  0.926999986      -1.18877633E-05
  0.938000023      -1.66249938E-05
  0.949000001      -2.15262526E-06
  0.959999979       1.34669299E-05
  0.971000016       1.71770789E-05
  0.981999993       6.19295906E-06
  0.992999971      -1.21611611E-05
   1.00399995      -1.55700964E-05
   1.01499999      -1.71376064E-06
   1.02600002       3.29816316E-06
   1.03699994       1.82533611E-07
   1.04799998       7.80580558E-06
   1.05900002       1.05571307E-05
   1.07000005      -4.19402386E-06
   1.08099997      -1.01403675E-05
   1.09200001       1.34634462E-07
   1.10300004       2.79859773E-06
   1.11399996      -1.57143256E-06
   1.12500000      -5.00504143E-07
   1.13600004       7.49524361E-07
   1.14699996       2.16207263E-06
   1.15799999       5.79698735E-06
   1.16900003       2.29979401E-06
   1.17999995      -5.59162709E-06
   1.19099998      -6.64673144E-06
   1.20200002      -5.61124261E-06
   1.21300006      -3.56113628E-06
   1.22399998       7.35883805E-06
   1.23500001       1.31127244E-05
   1.24600005       1.41736837E-06
   1.25699997      -6.20082801E-06
   1.26800001       1.47033290E-06
   1.27900004       2.75733532E-06
   1.28999996      -7.32297940E-06
   1.30100000      -9.74951945E-06
   1.31200004      -2.48324636E-06
   1.32299995       4.36895562E-06
   1.33399999       1.00230654E-05
   1.34500003       1.09092307E-05
   1.35599995       7.73307590E-07
   1.36699998      -1.15823887E-05
   1.37800002      -1.22276342E-05
   1.38900006      -1.29132354E-06
