 -0.959999979       0.00000000
 -0.925000012       3.78885791E-23
 -0.889999986       2.50833687E-09
 -0.855000019       2.58473438E-08
 -0.819999993       1.16054210E-07
 -0.785000026       3.14121166E-07
 -0.750000000       5.96727489E-07
 -0.714999974       1.06913399E-06
 -0.680000007       2.34137110E-06
 -0.644999981       5.29281215E-06
 -0.610000014       1.04816136E-05
 -0.574999988       1.87033093E-05
 -0.540000021       3.20338331E-05
 -0.504999995       5.30759025E-05
 -0.469999999       8.33089653E-05
 -0.435000002       1.22740210E-04
 -0.400000006       1.69415856E-04
 -0.365000010       2.17534034E-04
 -0.330000013       2.56722997E-04
 -0.294999987       2.73318728E-04
 -0.259999990       2.51740916E-04
 -0.224999994       1.77335867E-04
 -0.189999998       4.21706391E-05
 -0.155000001      -1.50171414E-04
 -0.119999997      -3.82760918E-04
  -8.50000009E-02  -6.21536747E-04
  -5.00000007E-02  -8.06714874E-04
  -1.49999997E-02  -8.41883826E-04
   1.99999996E-02  -5.83957240E-04
   5.49999997E-02   1.55286369E-04
   9.00000036E-02   1.57007761E-03
  0.125000000       3.75644700E-03
  0.159999996       6.53596502E-03
  0.194999993       9.23436787E-03
  0.230000004       1.04862768E-02
  0.264999986       8.17905366E-03
  0.300000012      -3.46492539E-04
  0.335000008      -1.77729595E-02
  0.370000005      -4.59926166E-02
  0.405000001      -8.51544067E-02
  0.439999998     -0.132828251
  0.474999994     -0.183583438
  0.509999990     -0.229225636
  0.545000017     -0.259806365
  0.579999983     -0.265331358
  0.615000010     -0.237887949
  0.649999976     -0.173749432
  0.685000002      -7.49496520E-02
  0.720000029       5.01297005E-02
  0.754999995      0.187450275
  0.790000021      0.319298089
  0.824999988      0.427235991
  0.860000014      0.495437652
  0.894999981      0.513679564
  0.930000007      0.479303151
  0.964999974      0.397683024
   1.00000000      0.281105369
   1.03499997      0.146357089
   1.07000005       1.16134677E-02
   1.10500002     -0.106676884
   1.13999999     -0.196276963
   1.17499995     -0.250598967
   1.21000004     -0.268968314
   1.24500000     -0.255851060
   1.27999997     -0.219347239
   1.31500006     -0.169317663
   1.35000002     -0.115515478
   1.38499999      -6.60459772E-02
   1.41999996      -2.63865925E-02
   1.45500004       9.29874310E-04
   1.49000001       1.60127562E-02
   1.52499998       2.08742619E-02
   1.55999994       1.85210574E-02
   1.59500003       1.21331001E-02
   1.63000000       4.48128534E-03
