 -0.959999979       0.00000000
 -0.925000012       3.58331818E-08
 -0.889999986       3.69245555E-07
 -0.855000019       1.62208130E-06
 -0.819999993       4.11819747E-06
 -0.785000026       6.86675276E-06
 -0.750000000       1.07858650E-05
 -0.714999974       2.49234381E-05
 -0.680000007       6.03382068E-05
 -0.644999981       1.16289062E-04
 -0.610000014       1.91578278E-04
 -0.574999988       3.07888404E-04
 -0.540000021       4.91036568E-04
 -0.504999995       7.32501503E-04
 -0.469999999       9.95203387E-04
 -0.435000002       1.23009784E-03
 -0.400000006       1.35419657E-03
 -0.365000010       1.24724233E-03
 -0.330000013       7.96922715E-04
 -0.294999987      -7.11720131E-05
 -0.259999990      -1.37117703E-03
 -0.224999994      -2.99385423E-03
 -0.189999998      -4.67868103E-03
 -0.155000001      -6.07046159E-03
 -0.119999997      -6.73379842E-03
  -8.50000009E-02  -6.05646335E-03
  -5.00000007E-02  -3.14777507E-03
  -1.49999997E-02   3.18221957E-03
   1.99999996E-02   1.42452540E-02
   5.49999997E-02   3.07720359E-02
   9.00000036E-02   5.14451750E-02
  0.125000000       7.09410086E-02
  0.159999996       7.82558620E-02
  0.194999993       5.64330779E-02
  0.230000004      -1.50761539E-02
  0.264999986     -0.154754385
  0.300000012     -0.370743513
  0.335000008     -0.652088046
  0.370000005     -0.962592721
  0.405000001      -1.24050915
  0.439999998      -1.40612853
  0.474999994      -1.37710512
  0.509999990      -1.08889878
  0.545000017     -0.515794516
  0.579999983      0.313122898
  0.615000010       1.30831504
  0.649999976       2.32769060
  0.685000002       3.19827414
  0.720000029       3.74857116
  0.754999995       3.84526277
  0.790000021       3.42550993
  0.824999988       2.51627898
  0.860000014       1.23490536
  0.894999981     -0.230497956
  0.930000007      -1.65709722
  0.964999974      -2.83139801
   1.00000000      -3.59037066
   1.03499997      -3.84988523
   1.07000005      -3.61477232
   1.10500002      -2.96986365
   1.13999999      -2.05602837
   1.17499995      -1.03844452
   1.21000004      -7.50257373E-02
   1.24500000      0.708875656
   1.27999997       1.23619306
   1.31500006       1.48331070
   1.35000002       1.47530866
   1.38499999       1.27326941
   1.41999996      0.956798792
   1.45500004      0.605704963
   1.49000001      0.284917772
   1.52499998       3.58306430E-02
   1.55999994     -0.124875307
   1.59500003     -0.200569868
   1.63000000     -0.207643867
