 -0.959999979       0.00000000
 -0.925000012       0.00000000
 -0.889999986      -3.41525603E-22
 -0.855000019      -2.40929332E-15
 -0.819999993      -4.49101239E-14
 -0.785000026       6.47190838E-14
 -0.750000000       6.45942650E-14
 -0.714999974       2.23267449E-13
 -0.680000007      -2.70260528E-12
 -0.644999981      -2.45218494E-12
 -0.610000014       9.78197608E-15
 -0.574999988       5.88564744E-12
 -0.540000021      -5.85680072E-12
 -0.504999995       1.21788638E-11
 -0.469999999       4.68148842E-14
 -0.435000002      -2.48355156E-12
 -0.400000006       1.73181747E-10
 -0.365000010       1.20791210E-10
 -0.330000013      -6.63298583E-10
 -0.294999987       1.17777677E-10
 -0.259999990       9.22727894E-10
 -0.224999994      -6.29187369E-10
 -0.189999998      -1.10225007E-09
 -0.155000001       2.04961026E-09
 -0.119999997       1.25837307E-09
  -8.50000009E-02  -5.69247716E-09
  -5.00000007E-02  -7.70584097E-10
  -1.49999997E-02   8.52629345E-09
   1.99999996E-02   2.59857158E-09
   5.49999997E-02  -4.88146590E-09
   9.00000036E-02  -6.15652818E-09
  0.125000000      -7.02400182E-09
  0.159999996       7.60856089E-09
  0.194999993       6.15951112E-09
  0.230000004      -8.13129208E-09
  0.264999986      -9.50041112E-09
  0.300000012       9.30621624E-09
  0.335000008       1.14515109E-08
  0.370000005       3.65736941E-10
  0.405000001      -2.86391977E-08
  0.439999998      -2.61003414E-08
  0.474999994       9.84535831E-09
  0.509999990       2.46306779E-08
  0.545000017       1.57107518E-08
  0.579999983       2.27470487E-08
  0.615000010       4.29162448E-08
  0.649999976      -5.84888671E-09
  0.685000002      -3.21097069E-08
  0.720000029       7.12876691E-09
  0.754999995      -1.78430835E-08
  0.790000021      -6.92609277E-08
  0.824999988      -2.65792899E-08
  0.860000014       5.92760774E-09
  0.894999981      -1.09227365E-08
  0.930000007       2.20055405E-08
  0.964999974       5.01615212E-08
   1.00000000       1.76867410E-08
   1.03499997      -3.49229978E-08
   1.07000005      -4.00975964E-08
   1.10500002      -3.82859398E-08
   1.13999999       1.49445434E-08
   1.17499995       8.28535818E-08
   1.21000004       7.78501956E-08
   1.24500000       2.65867772E-08
   1.27999997      -6.36655439E-09
   1.31500006      -2.70126055E-08
   1.35000002      -3.43299114E-08
   1.38499999       2.92686373E-08
   1.41999996       4.32678213E-08
   1.45500004      -6.39827320E-08
   1.49000001      -9.21885288E-08
   1.52499998       1.61819713E-08
   1.55999994       2.76733729E-08
   1.59500003      -2.82372827E-08
   1.63000000      -2.99765390E-09
