 -0.800000012       0.00000000
 -0.788999975       0.00000000
 -0.777999997       0.00000000
 -0.767000020       0.00000000
 -0.755999982       0.00000000
 -0.745000005      -1.86506214E-12
 -0.734000027      -4.50966382E-11
 -0.722999990       2.12333096E-10
 -0.712000012      -2.37531328E-10
 -0.700999975      -8.19547263E-10
 -0.689999998       2.09493933E-09
 -0.679000020       8.22949653E-10
 -0.667999983      -6.75424516E-09
 -0.657000005       2.54648680E-09
 -0.646000028       1.23074564E-08
 -0.634999990      -1.18395045E-08
 -0.624000013      -1.14144942E-08
 -0.612999976       2.39219240E-08
 -0.601999998      -6.07151085E-09
 -0.591000021      -2.65174087E-08
 -0.579999983       4.08636254E-08
 -0.569000006       2.99998248E-10
 -0.558000028      -7.16043402E-08
 -0.546999991       6.70545290E-08
 -0.536000013       5.32597468E-08
 -0.524999976      -1.63386929E-07
 -0.513999999       5.30552740E-08
 -0.503000021       2.26932045E-07
 -0.492000014      -2.49595672E-07
 -0.481000006      -1.55338910E-07
 -0.469999999       4.83180884E-07
 -0.458999991      -1.40716025E-07
 -0.448000014      -6.68455527E-07
 -0.437000006       6.15135718E-07
 -0.425999999       6.63177957E-07
 -0.414999992      -1.08623897E-06
 -0.404000014      -3.22916208E-07
 -0.393000007       1.33434526E-06
 -0.381999999      -3.66007214E-07
 -0.370999992      -1.21836536E-06
 -0.360000014       1.13773422E-06
 -0.349000007       5.90338516E-07
 -0.338000000      -1.76458298E-06
 -0.326999992       3.41202281E-07
 -0.316000015       1.95423831E-06
 -0.305000007      -9.94894435E-07
 -0.294000000      -7.10588722E-07
 -0.282999992       2.96162943E-06
 -0.272000015       1.84947078E-06
 -0.261000007       1.21546108E-07
 -0.250000000       3.60571744E-06
 -0.238999993       5.54062899E-06
 -0.228000000       5.00287797E-06
 -0.216999993       9.11557981E-06
 -0.206000000       1.40460334E-05
 -0.194999993       1.58613984E-05
 -0.184000000       2.23566076E-05
 -0.172999993       3.36736957E-05
 -0.162000000       4.29805623E-05
 -0.150999993       5.61991546E-05
 -0.140000001       7.84532385E-05
 -0.128999993       1.02842736E-04
 -0.118000001       1.32467365E-04
 -0.107000001       1.77670619E-04
  -9.60000008E-02   2.33481813E-04
  -8.50000009E-02   2.96958315E-04
  -7.40000010E-02   3.82670987E-04
  -6.30000010E-02   4.95903660E-04
  -5.20000011E-02   6.29464106E-04
  -4.10000011E-02   7.92186300E-04
  -2.99999993E-02   9.99587239E-04
  -1.89999994E-02   1.25158171E-03
  -8.00000038E-03   1.55063986E-03
   3.00000003E-03   1.91373588E-03
   1.40000004E-02   2.35206122E-03
   2.50000004E-02   2.86894012E-03
   3.59999985E-02   3.47575243E-03
   4.69999984E-02   4.18838207E-03
   5.79999983E-02   5.01859654E-03
   6.89999983E-02   5.97603898E-03
   7.99999982E-02   7.06895860E-03
   9.09999982E-02   8.30710027E-03
  0.101999998       9.70254373E-03
  0.112999998       1.12583740E-02
  0.123999998       1.29699418E-02
  0.135000005       1.48393847E-02
  0.145999998       1.68643035E-02
  0.157000005       1.90213397E-02
  0.167999998       2.12846454E-02
  0.179000005       2.36349702E-02
  0.189999998       2.60329340E-02
  0.201000005       2.84162387E-02
  0.211999997       3.07254214E-02
  0.223000005       3.28966863E-02
  0.233999997       3.48381400E-02
  0.245000005       3.64406444E-02
  0.256000012       3.75956260E-02
  0.266999990       3.81847508E-02
  0.277999997       3.80682051E-02
  0.289000005       3.70931551E-02
  0.300000012       3.51058729E-02
  0.310999990       3.19518819E-02
  0.321999997       2.74687894E-02
  0.333000004       2.14896910E-02
  0.344000012       1.38611086E-02
  0.354999989       4.45040222E-03
  0.365999997      -6.86392747E-03
  0.377000004      -2.01867856E-02
  0.388000011      -3.55813056E-02
  0.398999989      -5.30615263E-02
  0.409999996      -7.26034492E-02
  0.421000004      -9.41336825E-02
  0.432000011     -0.117501363
  0.442999989     -0.142480105
  0.453999996     -0.168785766
  0.465000004     -0.196057990
  0.476000011     -0.223833472
  0.486999989     -0.251569718
  0.497999996     -0.278673470
  0.509000003     -0.304477513
  0.519999981     -0.328231096
  0.531000018     -0.349150032
  0.541999996     -0.366449088
  0.552999973     -0.379327387
  0.564000010     -0.386987835
  0.574999988     -0.388695538
  0.586000025     -0.383805692
  0.597000003     -0.371771306
  0.607999980     -0.352175355
  0.619000018     -0.324770540
  0.629999995     -0.289502084
  0.640999973     -0.246522173
  0.652000010     -0.196198374
  0.662999988     -0.139120534
  0.674000025      -7.61098862E-02
  0.685000002      -8.20457749E-03
  0.695999980       6.33727983E-02
  0.707000017      0.137232766
  0.717999995      0.211842746
  0.728999972      0.285588413
  0.740000010      0.356829166
  0.750999987      0.423924536
  0.762000024      0.485286236
  0.773000002      0.539461017
  0.783999979      0.585173607
  0.795000017      0.621339679
  0.805999994      0.647115588
  0.816999972      0.661954463
  0.828000009      0.665609956
  0.838999987      0.658121765
  0.850000024      0.639824748
  0.861000001      0.611347020
  0.871999979      0.573574722
  0.883000016      0.527612209
  0.893999994      0.474744081
  0.904999971      0.416388094
  0.916000009      0.354047149
  0.926999986      0.289262027
  0.938000023      0.223554045
  0.949000001      0.158372626
  0.959999979       9.50623602E-02
  0.971000016       3.48349176E-02
  0.981999993      -2.12675966E-02
  0.992999971      -7.23990723E-02
   1.00399995     -0.117913373
   1.01499999     -0.157359838
   1.02600002     -0.190484911
   1.03699994     -0.217229873
   1.04799998     -0.237708345
   1.05900002     -0.252176046
   1.07000005     -0.261013806
   1.08099997     -0.264708877
   1.09200001     -0.263817936
   1.10300004     -0.258937538
   1.11399996     -0.250693977
   1.12500000     -0.239721611
   1.13600004     -0.226628244
   1.14699996     -0.211980492
   1.15799999     -0.196307659
   1.16900003     -0.180091128
   1.17999995     -0.163742036
   1.19099998     -0.147599086
   1.20200002     -0.131946281
   1.21300006     -0.117018811
   1.22399998     -0.102986507
   1.23500001      -8.99512395E-02
   1.24600005      -7.79760554E-02
   1.25699997      -6.71039522E-02
   1.26800001      -5.73386922E-02
   1.27900004      -4.86361384E-02
   1.28999996      -4.09388542E-02
   1.30100000      -3.42004001E-02
   1.31200004      -2.83597428E-02
   1.32299995      -2.33244896E-02
   1.33399999      -1.90067403E-02
   1.34500003      -1.53466109E-02
   1.35599995      -1.22781694E-02
   1.36699998      -9.71237849E-03
   1.37800002      -7.57826399E-03
   1.38900006      -5.83718531E-03
