 -0.959999979       0.00000000
 -0.925000012       2.04761045E-06
 -0.889999986       1.70045259E-05
 -0.855000019       5.45860894E-05
 -0.819999993       8.80491280E-05
 -0.785000026       6.90112720E-05
 -0.750000000       1.54938243E-04
 -0.714999974       6.52922841E-04
 -0.680000007       1.37077749E-03
 -0.644999981       1.82641449E-03
 -0.610000014       2.47583026E-03
 -0.574999988       4.17046528E-03
 -0.540000021       6.29514782E-03
 -0.504999995       7.50283478E-03
 -0.469999999       7.50868209E-03
 -0.435000002       5.91383921E-03
 -0.400000006       1.17753213E-03
 -0.365000010      -7.28898868E-03
 -0.330000013      -1.84436701E-02
 -0.294999987      -3.11618913E-02
 -0.259999990      -4.31240164E-02
 -0.224999994      -4.96002883E-02
 -0.189999998      -4.66758125E-02
 -0.155000001      -3.28553095E-02
 -0.119999997      -5.04835276E-03
  -8.50000009E-02   4.37548235E-02
  -5.00000007E-02  0.122452594
  -1.49999997E-02  0.239260212
   1.99999996E-02  0.392919481
   5.49999997E-02  0.551468432
   9.00000036E-02  0.629846752
  0.125000000      0.484202772
  0.159999996      -6.62052557E-02
  0.194999993      -1.18081546
  0.230000004      -2.90543175
  0.264999986      -5.07618380
  0.300000012      -7.26605082
  0.335000008      -8.81077099
  0.370000005      -8.93234444
  0.405000001      -6.94860792
  0.439999998      -2.51537299
  0.474999994       4.17385769
  0.509999990       12.2951069
  0.545000017       20.4537296
  0.579999983       26.9129581
  0.615000010       29.9551334
  0.649999976       28.2948875
  0.685000002       21.4527264
  0.720000029       9.99284840
  0.754999995      -4.46756697
  0.790000021      -19.5183277
  0.824999988      -32.4377518
  0.860000014      -40.7835922
  0.894999981      -42.9537544
  0.930000007      -38.5662079
  0.964999974      -28.5366650
   1.00000000      -14.8331423
   1.03499997       3.73419141E-03
   1.07000005       13.4312477
   1.10500002       23.4206562
   1.13999999       28.7984562
   1.17499995       29.3491859
   1.21000004       25.7033577
   1.24500000       19.0910683
   1.27999997       11.0413723
   1.31500006       3.07963657
   1.35000002      -3.53691173
   1.38499999      -8.00825310
   1.41999996      -10.0758305
   1.45500004      -9.98661709
   1.49000001      -8.34401035
   1.52499998      -5.88958549
   1.55999994      -3.29369354
   1.59500003      -1.03169239
   1.63000000      0.627538741
