 -0.800000012       0.00000000
 -0.788999975       0.00000000
 -0.777999997       0.00000000
 -0.767000020       9.87461363E-11
 -0.755999982       4.80911561E-11
 -0.745000005       5.11505283E-09
 -0.734000027      -3.35024559E-08
 -0.722999990       1.04261630E-07
 -0.712000012      -2.23155538E-07
 -0.700999975       1.78493892E-07
 -0.689999998       9.40513758E-07
 -0.679000020      -3.23675113E-06
 -0.667999983       1.24091400E-06
 -0.657000005       1.12826074E-05
 -0.646000028      -1.71614174E-05
 -0.634999990      -1.77606507E-05
 -0.624000013       6.09782146E-05
 -0.612999976      -2.18275818E-06
 -0.601999998      -1.29966604E-04
 -0.591000021       8.58884960E-05
 -0.579999983       1.74986373E-04
 -0.569000006      -2.49443168E-04
 -0.558000028      -9.11854295E-05
 -0.546999991       4.39847179E-04
 -0.536000013      -2.28049088E-04
 -0.524999976      -5.13074046E-04
 -0.513999999       7.55405286E-04
 -0.503000021       2.62203859E-04
 -0.492000014      -1.18810660E-03
 -0.481000006       5.19620196E-04
 -0.469999999       1.00520055E-03
 -0.458999991      -1.90352928E-03
 -0.448000014       1.44716105E-04
 -0.437000006       3.48510314E-03
 -0.425999999      -2.08423007E-03
 -0.414999992      -4.06952947E-03
 -0.404000014       4.37065447E-03
 -0.393000007       2.33531906E-03
 -0.381999999      -6.54916279E-03
 -0.370999992       1.69498392E-03
 -0.360000014       7.25365803E-03
 -0.349000007      -7.21979421E-03
 -0.338000000      -5.17817726E-03
 -0.326999992       1.34330159E-02
 -0.316000015       2.65415385E-03
 -0.305000007      -1.34524135E-02
 -0.294000000       5.96987875E-03
 -0.282999992       1.37133673E-02
 -0.272000015      -9.15158447E-03
 -0.261000007      -2.17276649E-03
 -0.250000000       2.04372592E-02
 -0.238999993       2.51513184E-03
 -0.228000000      -7.93121569E-03
 -0.216999993       2.26405337E-02
 -0.206000000       2.53214221E-02
 -0.194999993       2.76081054E-03
 -0.184000000       2.41154637E-02
 -0.172999993       4.97967005E-02
 -0.162000000       3.37224714E-02
 -0.150999993       4.19388153E-02
 -0.140000001       8.38969648E-02
 -0.128999993       9.01116431E-02
 -0.118000001       9.16871727E-02
 -0.107000001      0.140352249
  -9.60000008E-02  0.178672075
  -8.50000009E-02  0.191858798
  -7.40000010E-02  0.244298384
  -6.30000010E-02  0.311644346
  -5.20000011E-02  0.348186493
  -4.10000011E-02  0.409715623
  -2.99999993E-02  0.508148074
  -1.89999994E-02  0.578201771
  -8.00000038E-03  0.646414638
   3.00000003E-03  0.760899723
   1.40000004E-02  0.861507416
   2.50000004E-02  0.932427049
   3.59999985E-02   1.04276562
   4.69999984E-02   1.16014028
   5.79999983E-02   1.21930623
   6.89999983E-02   1.28053677
   7.99999982E-02   1.36714113
   9.09999982E-02   1.38945651
  0.101999998       1.35719073
  0.112999998       1.34324288
  0.123999998       1.28180945
  0.135000005       1.11442840
  0.145999998      0.925717235
  0.157000005      0.723165333
  0.167999998      0.406629801
  0.179000005       9.81307775E-03
  0.189999998     -0.384637743
  0.201000005     -0.845886111
  0.211999997      -1.41224551
  0.223000005      -1.97998190
  0.233999997      -2.53959632
  0.245000005      -3.17308211
  0.256000012      -3.81764555
  0.266999990      -4.38280630
  0.277999997      -4.92973137
  0.289000005      -5.47110701
  0.300000012      -5.89538813
  0.310999990      -6.20344973
  0.321999997      -6.46515322
  0.333000004      -6.60657930
  0.344000012      -6.56436634
  0.354999989      -6.42099762
  0.365999997      -6.18569088
  0.377000004      -5.77216101
  0.388000011      -5.22419834
  0.398999989      -4.62030268
  0.409999996      -3.90293288
  0.421000004      -3.06084490
  0.432000011      -2.19653606
  0.442999989      -1.30937493
  0.453999996     -0.341550469
  0.465000004      0.634916484
  0.476000011       1.56046188
  0.486999989       2.50407338
  0.497999996       3.46614265
  0.509000003       4.36029339
  0.519999981       5.21542549
  0.531000018       6.09956837
  0.541999996       6.95715618
  0.552999973       7.74724436
  0.564000010       8.54165077
  0.574999988       9.35051727
  0.586000025       10.0939112
  0.597000003       10.7774439
  0.607999980       11.4477720
  0.619000018       12.0438480
  0.629999995       12.4958735
  0.640999973       12.8259230
  0.652000010       13.0198154
  0.662999988       12.9864635
  0.674000025       12.6983786
  0.685000002       12.1741266
  0.695999980       11.3623238
  0.707000017       10.2193794
  0.717999995       8.77973843
  0.728999972       7.05215454
  0.740000010       5.02267456
  0.750999987       2.75060368
  0.762000024      0.302152336
  0.773000002      -2.30435061
  0.783999979      -4.99140215
  0.795000017      -7.63539886
  0.805999994      -10.1812477
  0.816999972      -12.5836096
  0.828000009      -14.7172709
  0.838999987      -16.4877148
  0.850000024      -17.8864231
  0.861000001      -18.8649483
  0.871999979      -19.3365593
  0.883000016      -19.3010769
  0.893999994      -18.8084240
  0.904999971      -17.8542118
  0.916000009      -16.4379025
  0.926999986      -14.6497192
  0.938000023      -12.5836287
  0.949000001      -10.2724733
  0.959999979      -7.78552675
  0.971000016      -5.25108480
  0.981999993      -2.74717307
  0.992999971     -0.310541868
   1.00399995       1.96805465
   1.01499999       4.00038147
   1.02600002       5.77260303
   1.03699994       7.26423979
   1.04799998       8.41996002
   1.05900002       9.23809910
   1.07000005       9.75392532
   1.08099997       9.96404266
   1.09200001       9.87712383
   1.10300004       9.55400372
   1.11399996       9.03592205
   1.12500000       8.33425522
   1.13600004       7.50139141
   1.14699996       6.60575581
   1.15799999       5.66428041
   1.16900003       4.69059992
   1.17999995       3.74571252
   1.19099998       2.86624646
   1.20200002       2.03593349
   1.21300006       1.27295661
   1.22399998      0.625662923
   1.23500001       7.76559263E-02
   1.24600005     -0.401558489
   1.25699997     -0.776967645
   1.26800001      -1.04039943
   1.27900004      -1.24673748
   1.28999996      -1.39418137
   1.30100000      -1.44791698
   1.31200004      -1.45371246
   1.32299995      -1.45035326
   1.33399999      -1.39590681
   1.34500003      -1.29569352
   1.35599995      -1.21209645
   1.36699998      -1.12943792
   1.37800002      -1.00824857
   1.38900006     -0.893029094
