 -0.800000012       0.00000000
 -0.788999975       0.00000000
 -0.777999997       0.00000000
 -0.767000020      -1.82193709E-08
 -0.755999982      -4.18974828E-08
 -0.745000005       4.69074308E-07
 -0.734000027      -2.90906314E-07
 -0.722999990      -2.41927387E-06
 -0.712000012       2.78070593E-06
 -0.700999975       6.22823109E-06
 -0.689999998      -1.03817629E-05
 -0.679000020      -8.57081977E-06
 -0.667999983       2.58569926E-05
 -0.657000005       1.87348132E-06
 -0.646000028      -4.97191468E-05
 -0.634999990       1.83690172E-05
 -0.624000013       7.41558470E-05
 -0.612999976      -4.45202095E-05
 -0.601999998      -7.41293043E-05
 -0.591000021       6.54308096E-05
 -0.579999983       1.91026247E-05
 -0.569000006      -8.64717658E-05
 -0.558000028       8.02840877E-05
 -0.546999991       1.13985749E-04
 -0.536000013      -1.50421809E-04
 -0.524999976      -1.08280452E-04
 -0.513999999       1.33351932E-04
 -0.503000021       2.35714033E-05
 -0.492000014      -5.18273155E-05
 -0.481000006       9.15527198E-05
 -0.469999999      -6.46252811E-05
 -0.458999991      -1.42243429E-04
 -0.448000014       2.23829964E-04
 -0.437000006       1.33034351E-04
 -0.425999999      -3.71179834E-04
 -0.414999992      -2.24462521E-04
 -0.404000014       5.70978882E-05
 -0.393000007      -1.31030523E-04
 -0.381999999       8.21185240E-05
 -0.370999992       2.87213014E-04
 -0.360000014      -5.15039137E-04
 -0.349000007      -8.78975785E-04
 -0.338000000      -7.55023430E-05
 -0.326999992      -5.26890617E-05
 -0.316000015      -8.76598700E-04
 -0.305000007      -9.79542965E-04
 -0.294000000      -1.18236290E-03
 -0.282999992      -1.96979358E-03
 -0.272000015      -1.86366029E-03
 -0.261000007      -1.69423514E-03
 -0.250000000      -3.04620923E-03
 -0.238999993      -4.38279519E-03
 -0.228000000      -5.04723052E-03
 -0.216999993      -6.55015418E-03
 -0.206000000      -7.98031129E-03
 -0.194999993      -8.60591047E-03
 -0.184000000      -1.09723136E-02
 -0.172999993      -1.49090979E-02
 -0.162000000      -1.73530467E-02
 -0.150999993      -1.94473006E-02
 -0.140000001      -2.34876350E-02
 -0.128999993      -2.76579019E-02
 -0.118000001      -3.13630775E-02
 -0.107000001      -3.65485698E-02
  -9.60000008E-02  -4.20046821E-02
  -8.50000009E-02  -4.62645441E-02
  -7.40000010E-02  -5.14653437E-02
  -6.30000010E-02  -5.77657670E-02
  -5.20000011E-02  -6.28067032E-02
  -4.10000011E-02  -6.74079284E-02
  -2.99999993E-02  -7.26662725E-02
  -1.89999994E-02  -7.66191334E-02
  -8.00000038E-03  -7.94050545E-02
   3.00000003E-03  -8.29984695E-02
   1.40000004E-02  -8.57984275E-02
   2.50000004E-02  -8.61839280E-02
   3.59999985E-02  -8.63380060E-02
   4.69999984E-02  -8.71824473E-02
   5.79999983E-02  -8.74364451E-02
   6.89999983E-02  -8.82352367E-02
   7.99999982E-02  -9.11436677E-02
   9.09999982E-02  -9.54459459E-02
  0.101999998     -0.102121264
  0.112999998     -0.114347234
  0.123999998     -0.133207157
  0.135000005     -0.158810988
  0.145999998     -0.193114892
  0.157000005     -0.237797275
  0.167999998     -0.293602109
  0.179000005     -0.362436324
  0.189999998     -0.445555180
  0.201000005     -0.541629791
  0.211999997     -0.649769485
  0.223000005     -0.770337164
  0.233999997     -0.901234567
  0.245000005      -1.03802121
  0.256000012      -1.17703366
  0.266999990      -1.31399071
  0.277999997      -1.44198346
  0.289000005      -1.55399239
  0.300000012      -1.64364040
  0.310999990      -1.70241582
  0.321999997      -1.72074091
  0.333000004      -1.69111907
  0.344000012      -1.60688138
  0.354999989      -1.46104443
  0.365999997      -1.24863851
  0.377000004     -0.966778815
  0.388000011     -0.613528252
  0.398999989     -0.190310732
  0.409999996      0.297240883
  0.421000004      0.841960907
  0.432000011       1.43431115
  0.442999989       2.06015158
  0.453999996       2.70325637
  0.465000004       3.34665680
  0.476000011       3.97013760
  0.486999989       4.55173349
  0.497999996       5.07138157
  0.509000003       5.50955963
  0.519999981       5.84627676
  0.531000018       6.06459665
  0.541999996       6.15192223
  0.552999973       6.09861851
  0.564000010       5.89938021
  0.574999988       5.55454540
  0.586000025       5.06877375
  0.597000003       4.45110655
  0.607999980       3.71607733
  0.619000018       2.88261390
  0.629999995       1.97282231
  0.640999973       1.01184762
  0.652000010       2.65424084E-02
  0.662999988     -0.955972195
  0.674000025      -1.90848672
  0.685000002      -2.80475378
  0.695999980      -3.62131953
  0.707000017      -4.33801126
  0.717999995      -4.93807507
  0.728999972      -5.40921354
  0.740000010      -5.74408865
  0.750999987      -5.93980408
  0.762000024      -5.99775410
  0.773000002      -5.92397594
  0.783999979      -5.72881079
  0.795000017      -5.42561722
  0.805999994      -5.02968836
  0.816999972      -4.55808449
  0.828000009      -4.02933407
  0.838999987      -3.46224785
  0.850000024      -2.87496758
  0.861000001      -2.28469849
  0.871999979      -1.70707023
  0.883000016      -1.15532458
  0.893999994     -0.640433311
  0.904999971     -0.171594039
  0.916000009      0.244185254
  0.926999986      0.603014231
  0.938000023      0.903798461
  0.949000001       1.14668202
  0.959999979       1.33274853
  0.971000016       1.46520770
  0.981999993       1.54904628
  0.992999971       1.58937109
   1.00399995       1.59160304
   1.01499999       1.56219566
   1.02600002       1.50724208
   1.03699994       1.43170786
   1.04799998       1.34084332
   1.05900002       1.24022126
   1.07000005       1.13427508
   1.08099997       1.02646315
   1.09200001      0.919801056
   1.10300004      0.816396177
   1.11399996      0.718059659
   1.12500000      0.626811504
   1.13600004      0.543426335
   1.14699996      0.467522532
   1.15799999      0.399505258
   1.16900003      0.339625180
   1.17999995      0.286514878
   1.19099998      0.239595726
   1.20200002      0.199831307
   1.21300006      0.166251451
   1.22399998      0.136372879
   1.23500001      0.110234700
   1.24600005       8.88929665E-02
   1.25699997       7.09032416E-02
   1.26800001       5.48790209E-02
   1.27900004       4.16984037E-02
   1.28999996       3.12526599E-02
   1.30100000       2.19495054E-02
   1.31200004       1.40135074E-02
   1.32299995       8.36316310E-03
   1.33399999       4.01335489E-03
   1.34500003       1.84240227E-04
   1.35599995      -2.58037192E-03
   1.36699998      -4.64829849E-03
   1.37800002      -6.49166806E-03
   1.38900006      -7.15825334E-03
