 -0.959999979       0.00000000
 -0.925000012      -1.18841319E-06
 -0.889999986      -1.24818635E-05
 -0.855000019       4.90180128E-06
 -0.819999993      -1.44862852E-05
 -0.785000026      -5.94247795E-05
 -0.750000000      -6.74802432E-05
 -0.714999974      -2.02410083E-04
 -0.680000007      -3.02690751E-04
 -0.644999981      -2.14546133E-04
 -0.610000014      -7.01392419E-04
 -0.574999988      -1.64845085E-03
 -0.540000021      -1.64269074E-03
 -0.504999995      -1.36557699E-03
 -0.469999999      -2.23540585E-03
 -0.435000002      -2.40124715E-03
 -0.400000006      -8.98328843E-04
 -0.365000010      -9.08464834E-04
 -0.330000013      -4.20375448E-03
 -0.294999987      -1.24328155E-02
 -0.259999990      -3.51006277E-02
 -0.224999994      -8.55014175E-02
 -0.189999998     -0.173962981
 -0.155000001     -0.311879337
 -0.119999997     -0.506939232
  -8.50000009E-02 -0.744895339
  -5.00000007E-02 -0.982812047
  -1.49999997E-02  -1.15224719
   1.99999996E-02  -1.15844345
   5.49999997E-02 -0.894908845
   9.00000036E-02 -0.283515483
  0.125000000      0.687967122
  0.159999996       1.94383729
  0.194999993       3.30801296
  0.230000004       4.52053404
  0.264999986       5.29594851
  0.300000012       5.39332438
  0.335000008       4.67232990
  0.370000005       3.13338137
  0.405000001      0.928096056
  0.439999998      -1.67332196
  0.474999994      -4.33441114
  0.509999990      -6.70152473
  0.545000017      -8.45221901
  0.579999983      -9.33929634
  0.615000010      -9.21674252
  0.649999976      -8.05050182
  0.685000002      -5.92400599
  0.720000029      -3.03410268
  0.754999995      0.323061854
  0.790000021       3.77068400
  0.824999988       6.87745619
  0.860000014       9.19984818
  0.894999981       10.3497791
  0.930000007       10.0856209
  0.964999974       8.40069866
   1.00000000       5.57123756
   1.03499997       2.13323879
   1.07000005      -1.22936261
   1.10500002      -3.86753726
   1.13999999      -5.35374117
   1.17499995      -5.59454060
   1.21000004      -4.82616758
   1.24500000      -3.49609447
   1.27999997      -2.07970715
   1.31500006     -0.917323351
   1.35000002     -0.141588271
   1.38499999      0.289435029
   1.41999996      0.492814213
   1.45500004      0.562250137
   1.49000001      0.525454700
   1.52499998      0.370001614
   1.55999994      0.108233221
   1.59500003     -0.173787042
   1.63000000     -0.329354942
