 -0.959999979       1.19491611E-04
 -0.925000012       2.61833280E-04
 -0.889999986       3.99417331E-04
 -0.855000019       9.57499084E-04
 -0.819999993       2.22921721E-03
 -0.785000026       4.57107509E-03
 -0.750000000       8.92178714E-03
 -0.714999974       1.66961178E-02
 -0.680000007       2.96990611E-02
 -0.644999981       5.00890091E-02
 -0.610000014       7.96969011E-02
 -0.574999988      0.119130179
 -0.540000021      0.166582972
 -0.504999995      0.215756178
 -0.469999999      0.254556537
 -0.435000002      0.266252846
 -0.400000006      0.232150987
 -0.365000010      0.136217654
 -0.330000013      -2.64120456E-02
 -0.294999987     -0.240295932
 -0.259999990     -0.466829538
 -0.224999994     -0.650136411
 -0.189999998     -0.730950892
 -0.155000001     -0.668686450
 -0.119999997     -0.466860235
  -8.50000009E-02 -0.188486412
  -5.00000007E-02   5.05309366E-02
  -1.49999997E-02  0.112156108
   1.99999996E-02 -0.114565872
   5.49999997E-02 -0.658538282
   9.00000036E-02  -1.42734027
  0.125000000      -2.20607257
  0.159999996      -2.70371318
  0.194999993      -2.63791299
  0.230000004      -1.83400750
  0.264999986     -0.304594636
  0.300000012       1.72318780
  0.335000008       3.84969020
  0.370000005       5.60538578
  0.405000001       6.58189106
  0.439999998       6.54690027
  0.474999994       5.50346899
  0.509999990       3.67635727
  0.545000017       1.43650925
  0.579999983     -0.804987550
  0.615000010      -2.69568181
  0.649999976      -4.00408506
  0.685000002      -4.63750362
  0.720000029      -4.62724066
  0.754999995      -4.09728765
  0.790000021      -3.22654486
  0.824999988      -2.21083379
  0.860000014      -1.22891915
  0.894999981     -0.413851738
  0.930000007      0.166379154
  0.964999974      0.509779036
   1.00000000      0.660112023
   1.03499997      0.677452624
   1.07000005      0.615890801
   1.10500002      0.515807033
   1.13999999      0.408704668
   1.17499995      0.326718599
   1.21000004      0.304674208
   1.24500000      0.366882116
   1.27999997      0.506144226
   1.31500006      0.673625708
   1.35000002      0.792324126
   1.38499999      0.790415406
   1.41999996      0.637403250
   1.45500004      0.362490267
   1.49000001       4.28171381E-02
   1.52499998     -0.233526781
   1.55999994     -0.408838779
   1.59500003     -0.477175653
   1.63000000     -0.473937780
