 -0.800000012       0.00000000
 -0.788999975       0.00000000
 -0.777999997       0.00000000
 -0.767000020      -7.92114536E-21
 -0.755999982       3.18951137E-14
 -0.745000005      -8.69988597E-13
 -0.734000027       1.75249973E-12
 -0.722999990       1.83224334E-12
 -0.712000012      -6.96620799E-12
 -0.700999975       3.92008440E-11
 -0.689999998      -3.29818291E-11
 -0.679000020      -1.23905719E-10
 -0.667999983       3.67190611E-10
 -0.657000005      -2.64125333E-10
 -0.646000028      -4.10957129E-10
 -0.634999990       5.29088884E-10
 -0.624000013       2.31382344E-10
 -0.612999976      -5.85638260E-10
 -0.601999998       4.91623076E-10
 -0.591000021       1.10822895E-09
 -0.579999983      -3.08787929E-09
 -0.569000006       9.07607212E-10
 -0.558000028       3.19556048E-09
 -0.546999991      -3.29519945E-09
 -0.536000013      -2.62522359E-09
 -0.524999976       6.91405111E-09
 -0.513999999      -1.72707326E-09
 -0.503000021      -9.45961087E-09
 -0.492000014       1.33078029E-08
 -0.481000006       1.10368354E-08
 -0.469999999      -3.80702296E-08
 -0.458999991       2.46795651E-09
 -0.448000014       5.39891118E-08
 -0.437000006      -3.43110642E-08
 -0.425999999      -2.91717122E-08
 -0.414999992       8.14174044E-08
 -0.404000014      -8.31623908E-08
 -0.393000007      -3.09377235E-08
 -0.381999999       1.19165392E-07
 -0.370999992      -8.00042841E-08
 -0.360000014      -8.83349074E-08
 -0.349000007       5.13312216E-07
 -0.338000000      -3.97585694E-07
 -0.326999992      -9.51460606E-07
 -0.316000015       1.47370201E-06
 -0.305000007       7.44264071E-07
 -0.294000000      -2.71358772E-06
 -0.282999992       3.04441130E-07
 -0.272000015       3.09576535E-06
 -0.261000007      -7.97350197E-07
 -0.250000000      -3.59305045E-06
 -0.238999993       2.91610695E-06
 -0.228000000       8.14846601E-07
 -0.216999993      -5.45146668E-06
 -0.206000000       8.71142583E-06
 -0.194999993      -6.05507751E-07
 -0.184000000      -1.41024539E-05
 -0.172999993       1.19624829E-05
 -0.162000000       1.06605476E-05
 -0.150999993      -2.53563721E-05
 -0.140000001       1.15534351E-06
 -0.128999993       3.15041580E-05
 -0.118000001      -1.15166431E-05
 -0.107000001      -3.67731845E-05
  -9.60000008E-02   3.25655310E-05
  -8.50000009E-02   4.86734170E-05
  -7.40000010E-02  -7.52103879E-05
  -6.30000010E-02  -5.66365525E-05
  -5.20000011E-02   1.19769356E-04
  -4.10000011E-02   6.97098221E-05
  -2.99999993E-02  -1.88974285E-04
  -1.89999994E-02  -5.92911874E-06
  -8.00000038E-03   1.75463894E-04
   3.00000003E-03  -9.24261039E-05
   1.40000004E-02  -7.84037620E-05
   2.50000004E-02   1.87110025E-04
   3.59999985E-02   1.61547414E-05
   4.69999984E-02  -2.84780283E-04
   5.79999983E-02   4.85389282E-05
   6.89999983E-02   1.54250694E-04
   7.99999982E-02  -9.61287078E-05
   9.09999982E-02   1.24613100E-04
  0.101999998       1.37928248E-04
  0.112999998      -3.71650298E-04
  0.123999998       1.20637880E-04
  0.135000005       3.68634326E-04
  0.145999998      -5.05349366E-04
  0.157000005      -2.44358991E-04
  0.167999998       6.06550777E-04
  0.179000005       1.53611967E-04
  0.189999998      -4.42991470E-04
  0.201000005       2.02603169E-05
  0.211999997       2.05034215E-04
  0.223000005      -2.28566714E-04
  0.233999997       5.27081538E-05
  0.245000005       1.73564549E-04
  0.256000012      -2.19969384E-04
  0.266999990       8.98696908E-06
  0.277999997       3.01410095E-04
  0.289000005      -6.15891768E-05
  0.300000012      -1.21173398E-04
  0.310999990       8.65858456E-05
  0.321999997      -3.57842713E-04
  0.333000004       1.21470868E-04
  0.344000012      -2.72912857E-05
  0.354999989      -2.54909712E-04
  0.365999997       6.08436181E-04
  0.377000004       4.41049924E-04
  0.388000011      -8.28705262E-04
  0.398999989      -5.60748158E-04
  0.409999996       1.60213385E-03
  0.421000004      -2.27689088E-04
  0.432000011      -1.76888739E-03
  0.442999989       7.34261703E-04
  0.453999996       1.36956747E-03
  0.465000004      -8.20520276E-04
  0.476000011      -7.14163878E-04
  0.486999989       7.46284903E-04
  0.497999996       4.36118244E-05
  0.509000003      -4.80491784E-04
  0.519999981       3.34339624E-04
  0.531000018       4.21526900E-04
  0.541999996      -4.84861230E-04
  0.552999973      -7.49400991E-04
  0.564000010       3.43918975E-04
  0.574999988       1.24407036E-03
  0.586000025      -2.94911384E-04
  0.597000003      -1.40666752E-03
  0.607999980       5.21165319E-04
  0.619000018       8.15944280E-04
  0.629999995      -5.84971218E-04
  0.640999973      -3.05359805E-04
  0.652000010       7.24303885E-04
  0.662999988       2.81599321E-04
  0.674000025      -7.09178799E-04
  0.685000002      -2.13427425E-04
  0.695999980       9.88710206E-04
  0.707000017      -1.84310687E-04
  0.717999995      -1.79649598E-03
  0.728999972      -5.54720347E-04
  0.740000010       2.50954879E-03
  0.750999987       1.60261139E-03
  0.762000024      -1.82044937E-03
  0.773000002      -1.44915981E-03
  0.783999979       1.33207615E-03
  0.795000017       8.86967246E-05
  0.805999994      -2.21095281E-03
  0.816999972       8.68435658E-04
  0.828000009       3.19661782E-03
  0.838999987      -9.00868734E-04
  0.850000024      -3.16888047E-03
  0.861000001       1.03531301E-03
  0.871999979       2.08447548E-03
  0.883000016      -1.25337718E-03
  0.893999994      -7.66434358E-04
  0.904999971       1.45271188E-03
  0.916000009      -3.30522336E-04
  0.926999986      -1.47864595E-03
  0.938000023       6.84998697E-04
  0.949000001       9.06155328E-04
  0.959999979      -4.56570880E-04
  0.971000016       9.45455831E-05
  0.981999993       5.49938355E-04
  0.992999971      -1.16013864E-03
   1.00399995      -8.52251484E-04
   1.01499999       1.52572268E-03
   1.02600002       1.10190338E-03
   1.03699994      -1.10665499E-03
   1.04799998      -7.23848585E-04
   1.05900002       7.21123768E-04
   1.07000005      -1.58831826E-04
   1.08099997      -8.56442377E-04
   1.09200001       3.75683303E-04
   1.10300004       9.31495510E-04
   1.11399996      -1.13271235E-04
   1.12500000      -4.73171182E-04
   1.13600004       1.06271946E-04
   1.14699996       2.53709673E-04
   1.15799999      -1.13219412E-05
   1.16900003      -2.87814502E-04
   1.17999995      -3.02314118E-04
   1.19099998       7.68797545E-05
   1.20200002       9.11500392E-05
   1.21300006      -5.51153025E-05
   1.22399998       6.98709278E-04
   1.23500001       7.07554165E-04
   1.24600005      -1.28037331E-03
   1.25699997      -1.62205764E-03
   1.26800001       1.15143973E-03
   1.27900004       1.86486787E-03
   1.28999996      -8.55939754E-04
   1.30100000      -1.32575410E-03
   1.31200004       1.04931300E-03
   1.32299995       6.18304184E-04
   1.33399999      -1.72009564E-03
   1.34500003      -2.88004230E-04
   1.35599995       2.39614607E-03
   1.36699998       4.13748523E-04
   1.37800002      -2.51237885E-03
   1.38900006      -4.43998113E-04
