 -0.959999979       0.00000000
 -0.925000012       0.00000000
 -0.889999986       0.00000000
 -0.855000019      -7.77777839E-14
 -0.819999993      -2.44941589E-21
 -0.785000026      -4.90000011E-12
 -0.750000000      -2.95555572E-12
 -0.714999974       6.45555527E-12
 -0.680000007      -2.64444491E-11
 -0.644999981       2.14433332E-10
 -0.610000014      -1.42022227E-10
 -0.574999988      -3.98922201E-10
 -0.540000021      -4.76622186E-10
 -0.504999995      -1.78881110E-09
 -0.469999999       1.95642214E-09
 -0.435000002       2.59552180E-09
 -0.400000006       2.08132428E-10
 -0.365000010       4.27194324E-09
 -0.330000013      -1.26903803E-08
 -0.294999987       2.37887203E-08
 -0.259999990      -1.74651635E-08
 -0.224999994      -3.00470475E-08
 -0.189999998       5.80416497E-08
 -0.155000001       9.77905490E-09
 -0.119999997      -6.26954559E-08
  -8.50000009E-02  -6.78311363E-09
  -5.00000007E-02   2.49173180E-08
  -1.49999997E-02   1.96627230E-08
   1.99999996E-02   1.66501724E-09
   5.49999997E-02  -4.05446023E-08
   9.00000036E-02   1.66420531E-08
  0.125000000       1.01131494E-08
  0.159999996       1.56902029E-08
  0.194999993      -2.65194142E-08
  0.230000004      -3.30483196E-08
  0.264999986       3.17841966E-08
  0.300000012      -7.87680499E-09
  0.335000008      -3.73433195E-08
  0.370000005       1.34717739E-08
  0.405000001       7.71892701E-08
  0.439999998       1.33260897E-07
  0.474999994       1.02679365E-07
  0.509999990      -7.31736449E-08
  0.545000017      -1.85311094E-07
  0.579999983      -7.82670213E-08
  0.615000010      -1.45495340E-08
  0.649999976       1.46015608E-07
  0.685000002       2.14193193E-07
  0.720000029      -1.13940004E-07
  0.754999995      -3.09544816E-07
  0.790000021      -5.22415000E-10
  0.824999988       5.87350257E-08
  0.860000014      -4.00221190E-08
  0.894999981       6.51105267E-08
  0.930000007      -2.82307866E-08
  0.964999974      -7.39447188E-08
   1.00000000       1.09717355E-07
   1.03499997       4.10658139E-08
   1.07000005      -6.58150583E-08
   1.10500002      -3.44331710E-08
   1.13999999      -1.04677596E-07
   1.17499995      -7.64018537E-08
   1.21000004       1.03357635E-07
   1.24500000       3.36707089E-08
   1.27999997      -3.35506456E-10
   1.31500006       1.03602460E-07
   1.35000002      -7.24894562E-08
   1.38499999      -1.30468649E-07
   1.41999996       7.70867530E-08
   1.45500004      -2.59711985E-08
   1.49000001      -5.83048774E-08
   1.52499998       2.23319859E-07
   1.55999994       6.25993408E-08
   1.59500003      -2.17836742E-07
   1.63000000      -5.19405230E-09
