 -0.800000012       0.00000000
 -0.788999975       3.06854096E-16
 -0.777999997       2.61283661E-10
 -0.767000020       1.95963135E-09
 -0.755999982       1.13544008E-09
 -0.745000005      -1.85259328E-08
 -0.734000027       2.91782047E-08
 -0.722999990      -1.81317077E-08
 -0.712000012       4.09174117E-09
 -0.700999975       7.79616105E-09
 -0.689999998      -2.45154155E-08
 -0.679000020       5.11072251E-09
 -0.667999983       1.10950262E-08
 -0.657000005       5.60183224E-08
 -0.646000028      -5.03215851E-08
 -0.634999990      -1.18004174E-07
 -0.624000013       1.87491210E-07
 -0.612999976       8.66714345E-08
 -0.601999998      -2.30953532E-08
 -0.591000021      -8.39160577E-07
 -0.579999983       1.05055597E-06
 -0.569000006      -7.02080740E-07
 -0.558000028       4.24147800E-07
 -0.546999991       1.50529274E-06
 -0.536000013      -3.39500070E-06
 -0.524999976       2.88244280E-07
 -0.513999999       2.53050598E-06
 -0.503000021      -6.88707246E-07
 -0.492000014      -1.11637553E-06
 -0.481000006       7.15201304E-06
 -0.469999999      -6.54739779E-06
 -0.458999991      -9.21553601E-06
 -0.448000014       5.13161922E-06
 -0.437000006       2.16505050E-05
 -0.425999999      -9.56192889E-06
 -0.414999992      -3.89970082E-05
 -0.404000014       5.22086993E-05
 -0.393000007      -3.12881530E-05
 -0.381999999      -2.27893051E-05
 -0.370999992       1.12368914E-04
 -0.360000014      -8.78438295E-05
 -0.349000007      -8.12761427E-05
 -0.338000000       2.13211722E-04
 -0.326999992      -1.73538996E-04
 -0.316000015      -7.55013389E-05
 -0.305000007       2.43644346E-04
 -0.294000000      -6.06673893E-05
 -0.282999992      -1.87033802E-04
 -0.272000015       1.89279541E-04
 -0.261000007       1.41264522E-04
 -0.250000000      -5.09314646E-04
 -0.238999993       2.84938549E-04
 -0.228000000       3.12247226E-04
 -0.216999993      -4.06095118E-04
 -0.206000000       1.40716860E-04
 -0.194999993       2.91099306E-04
 -0.184000000      -5.30583842E-04
 -0.172999993      -5.82075154E-05
 -0.162000000      -2.77170984E-05
 -0.150999993       5.29947516E-04
 -0.140000001       2.33151557E-04
 -0.128999993      -9.08351620E-04
 -0.118000001       2.85252521E-04
 -0.107000001       8.85944173E-04
  -9.60000008E-02  -9.24772408E-04
  -8.50000009E-02  -1.97032496E-04
  -7.40000010E-02   9.46614251E-04
  -6.30000010E-02  -5.30647114E-04
  -5.20000011E-02  -4.84586373E-04
  -4.10000011E-02   8.01060931E-04
  -2.99999993E-02  -5.30065678E-04
  -1.89999994E-02  -7.80443312E-04
  -8.00000038E-03   1.91053632E-03
   3.00000003E-03  -1.28271611E-04
   1.40000004E-02  -1.96113926E-03
   2.50000004E-02   1.57773471E-03
   3.59999985E-02   3.14210309E-04
   4.69999984E-02  -2.01752852E-03
   5.79999983E-02   8.25407391E-04
   6.89999983E-02   1.89041300E-03
   7.99999982E-02  -1.11409987E-03
   9.09999982E-02  -1.41963921E-03
  0.101999998       3.28345748E-04
  0.112999998       1.34246633E-03
  0.123999998       8.68448988E-04
  0.135000005      -2.74742907E-03
  0.145999998      -3.60564918E-05
  0.157000005       4.46087075E-03
  0.167999998      -1.85175228E-03
  0.179000005      -5.29025542E-03
  0.189999998       3.60742141E-03
  0.201000005       3.54304281E-03
  0.211999997      -5.23315184E-03
  0.223000005       1.08655018E-03
  0.233999997       4.35380451E-03
  0.245000005      -3.90650192E-03
  0.256000012      -2.13604188E-03
  0.266999990       4.03894624E-03
  0.277999997      -2.53776438E-04
  0.289000005      -1.70017162E-03
  0.300000012       1.57785427E-03
  0.310999990      -1.06585899E-03
  0.321999997      -1.41564594E-03
  0.333000004       2.36691767E-03
  0.344000012      -1.06173486E-03
  0.354999989      -1.63448858E-03
  0.365999997       2.66905827E-03
  0.377000004       7.58567418E-04
  0.388000011      -1.97348348E-03
  0.398999989       1.56610715E-03
  0.409999996      -4.81502240E-04
  0.421000004      -3.16520687E-03
  0.432000011       1.19717338E-03
  0.442999989       2.30372092E-03
  0.453999996      -7.95046450E-04
  0.465000004      -3.67687840E-04
  0.476000011       3.14475648E-04
  0.486999989       7.02324032E-04
  0.497999996       1.20884285E-03
  0.509000003      -2.76813982E-03
  0.519999981      -2.32056156E-03
  0.531000018       3.28079285E-03
  0.541999996       2.60009401E-04
  0.552999973      -2.67670490E-03
  0.564000010       4.46929783E-03
  0.574999988       1.88915990E-03
  0.586000025      -7.41122849E-03
  0.597000003      -2.96867976E-04
  0.607999980       6.69292407E-03
  0.619000018      -2.47246912E-03
  0.629999995      -4.17327648E-03
  0.640999973       4.12487006E-03
  0.652000010       2.41561653E-03
  0.662999988      -3.24203935E-03
  0.674000025      -1.15234172E-03
  0.685000002       1.24611647E-03
  0.695999980       8.27918353E-04
  0.707000017      -5.41752321E-04
  0.717999995      -2.00409931E-03
  0.728999972       9.02651343E-04
  0.740000010       2.88267527E-03
  0.750999987      -2.00264994E-03
  0.762000024      -1.97268231E-03
  0.773000002       3.67460167E-03
  0.783999979       3.00988206E-04
  0.795000017      -4.44991933E-03
  0.805999994       8.65188078E-04
  0.816999972       3.38051794E-03
  0.828000009      -1.23948778E-03
  0.838999987      -1.06441055E-03
  0.850000024       1.16982439E-03
  0.861000001      -7.55746907E-04
  0.871999979      -9.65343846E-04
  0.883000016       9.86071769E-04
  0.893999994       2.63607682E-04
  0.904999971      -5.33102895E-04
  0.916000009       8.32022110E-04
  0.926999986       8.35086568E-04
  0.938000023      -1.66379218E-03
  0.949000001      -1.71033165E-03
  0.959999979       2.27501662E-03
  0.971000016       2.02968577E-03
  0.981999993      -3.28536821E-03
  0.992999971      -1.34728558E-03
   1.00399995       4.21934715E-03
   1.01499999      -3.64190433E-04
   1.02600002      -3.99561087E-03
   1.03699994       2.87532294E-03
   1.04799998       2.61237496E-03
   1.05900002      -4.76249540E-03
   1.07000005      -5.08099736E-04
   1.08099997       4.63838549E-03
   1.09200001      -1.98108563E-03
   1.10300004      -2.93039135E-03
   1.11399996       3.94725893E-03
   1.12500000       1.12217851E-03
   1.13600004      -4.29747161E-03
   1.14699996       8.86493126E-06
   1.15799999       3.14879604E-03
   1.16900003      -6.84623315E-04
   1.17999995      -2.02577421E-03
   1.19099998       1.04318268E-03
   1.20200002       1.87555118E-03
   1.21300006      -1.23129995E-03
   1.22399998      -2.16189120E-03
   1.23500001       1.74059765E-03
   1.24600005       1.95250066E-03
   1.25699997      -2.75017926E-03
   1.26800001      -1.02128263E-03
   1.27900004       3.55212600E-03
   1.28999996      -1.24475613E-04
   1.30100000      -3.03828786E-03
   1.31200004       1.08263234E-03
   1.32299995       1.31175178E-03
   1.33399999      -1.38768251E-03
   1.34500003       3.94363655E-04
   1.35599995       6.03974273E-04
   1.36699998      -1.06598169E-03
   1.37800002       1.03055348E-03
   1.38900006       7.66177778E-04
