 -0.959999979       0.00000000
 -0.925000012       0.00000000
 -0.889999986       6.68103782E-23
 -0.855000019       1.80007527E-21
 -0.819999993       2.26566863E-14
 -0.785000026       6.80295867E-14
 -0.750000000      -6.70501862E-14
 -0.714999974      -6.12823811E-13
 -0.680000007      -1.69356467E-12
 -0.644999981       1.10615909E-11
 -0.610000014       2.55899707E-12
 -0.574999988      -2.60503750E-12
 -0.540000021      -2.21200610E-11
 -0.504999995      -1.62891575E-11
 -0.469999999       5.07034206E-11
 -0.435000002       3.05405493E-11
 -0.400000006       8.01933797E-11
 -0.365000010       3.10470788E-10
 -0.330000013      -5.13015019E-10
 -0.294999987       4.36464725E-10
 -0.259999990       1.69330262E-11
 -0.224999994      -1.70629755E-09
 -0.189999998       6.54127030E-10
 -0.155000001       5.17392840E-09
 -0.119999997      -1.74269288E-09
  -8.50000009E-02  -9.13070952E-09
  -5.00000007E-02   1.17513121E-09
  -1.49999997E-02   7.16253146E-09
   1.99999996E-02  -1.80155432E-10
   5.49999997E-02   1.20009969E-09
   9.00000036E-02   6.35161090E-10
  0.125000000      -9.36443101E-09
  0.159999996       6.10108075E-10
  0.194999993       1.30209719E-08
  0.230000004       9.65786917E-09
  0.264999986       9.33062871E-09
  0.300000012      -9.64474633E-09
  0.335000008      -3.04499643E-08
  0.370000005      -1.10787865E-10
  0.405000001       2.06544257E-08
  0.439999998      -1.07022196E-08
  0.474999994      -2.93777358E-08
  0.509999990      -1.16357883E-08
  0.545000017       9.94699612E-09
  0.579999983       2.13770619E-08
  0.615000010       1.21625980E-08
  0.649999976      -1.06493347E-09
  0.685000002       2.66834932E-09
  0.720000029       5.80513371E-09
  0.754999995      -2.22142815E-09
  0.790000021       1.21562316E-08
  0.824999988       2.19085692E-08
  0.860000014      -5.07364604E-08
  0.894999981      -1.22629572E-07
  0.930000007      -6.94204374E-08
  0.964999974       7.64283001E-08
   1.00000000       1.31190092E-07
   1.03499997       2.02451611E-09
   1.07000005      -1.46439717E-07
   1.10500002      -1.05023162E-07
   1.13999999       6.59422073E-09
   1.17499995       3.19432569E-09
   1.21000004      -2.03168149E-08
   1.24500000       2.94998959E-08
   1.27999997       5.88270339E-08
   1.31500006       3.98362587E-08
   1.35000002      -8.77207018E-09
   1.38499999      -7.98483271E-08
   1.41999996      -9.01471253E-08
   1.45500004       1.58834468E-09
   1.49000001       1.06769107E-07
   1.52499998       1.33713669E-07
   1.55999994       6.52629168E-08
   1.59500003      -5.15842089E-08
   1.63000000      -1.01112612E-07
