 -0.959999979       0.00000000
 -0.925000012       2.04762182E-06
 -0.889999986       1.70046278E-05
 -0.855000019       5.45860130E-05
 -0.819999993       8.80490697E-05
 -0.785000026       6.90117231E-05
 -0.750000000       1.54938825E-04
 -0.714999974       6.52923365E-04
 -0.680000007       1.37077819E-03
 -0.644999981       1.82641589E-03
 -0.610000014       2.47583259E-03
 -0.574999988       4.17047460E-03
 -0.540000021       6.29514176E-03
 -0.504999995       7.50285015E-03
 -0.469999999       7.50870118E-03
 -0.435000002       5.91377355E-03
 -0.400000006       1.17762806E-03
 -0.365000010      -7.28905294E-03
 -0.330000013      -1.84436496E-02
 -0.294999987      -3.11621130E-02
 -0.259999990      -4.31241542E-02
 -0.224999994      -4.95998897E-02
 -0.189999998      -4.66749258E-02
 -0.155000001      -3.28556113E-02
 -0.119999997      -5.05058235E-03
  -8.50000009E-02   4.37543653E-02
  -5.00000007E-02  0.122456245
  -1.49999997E-02  0.239260823
   1.99999996E-02  0.392913610
   5.49999997E-02  0.551468849
   9.00000036E-02  0.629852712
  0.125000000      0.484203368
  0.159999996      -6.62077293E-02
  0.194999993      -1.18080771
  0.230000004      -2.90542221
  0.264999986      -5.07618713
  0.300000012      -7.26605511
  0.335000008      -8.81076050
  0.370000005      -8.93233967
  0.405000001      -6.94863033
  0.439999998      -2.51539779
  0.474999994       4.17385483
  0.509999990       12.2950869
  0.545000017       20.4536972
  0.579999983       26.9129829
  0.615000010       29.9551640
  0.649999976       28.2948914
  0.685000002       21.4527283
  0.720000029       9.99284840
  0.754999995      -4.46755314
  0.790000021      -19.5183163
  0.824999988      -32.4377289
  0.860000014      -40.7835312
  0.894999981      -42.9537621
  0.930000007      -38.5662575
  0.964999974      -28.5366821
   1.00000000      -14.8330946
   1.03499997       3.72862117E-03
   1.07000005       13.4311695
   1.10500002       23.4205761
   1.13999999       28.7984352
   1.17499995       29.3492241
   1.21000004       25.7033901
   1.24500000       19.0910530
   1.27999997       11.0413227
   1.31500006       3.07963872
   1.35000002      -3.53687239
   1.38499999      -8.00820065
   1.41999996      -10.0757723
   1.45500004      -9.98659801
   1.49000001      -8.34404278
   1.52499998      -5.88961840
   1.55999994      -3.29368305
   1.59500003      -1.03168321
   1.63000000      0.627498388
