 -0.800000012       0.00000000
 -0.788999975       0.00000000
 -0.777999997       0.00000000
 -0.767000020       0.00000000
 -0.755999982       1.30535860E-11
 -0.745000005      -6.25098723E-11
 -0.734000027       2.54223448E-10
 -0.722999990      -4.68938610E-10
 -0.712000012      -5.05171793E-10
 -0.700999975       3.56243968E-09
 -0.689999998      -3.95571975E-09
 -0.679000020      -7.21774773E-09
 -0.667999983       2.33126265E-08
 -0.657000005      -6.26161523E-09
 -0.646000028      -6.15047142E-08
 -0.634999990       7.16299553E-08
 -0.624000013       9.81995996E-08
 -0.612999976      -2.00308023E-07
 -0.601999998      -1.02556697E-07
 -0.591000021       2.78603267E-07
 -0.579999983       1.19521928E-07
 -0.569000006       7.48075237E-08
 -0.558000028      -3.75728717E-07
 -0.546999991      -1.59406909E-06
 -0.536000013       1.18636910E-06
 -0.524999976       5.16413184E-06
 -0.513999999      -2.42318697E-06
 -0.503000021      -1.09521561E-05
 -0.492000014       2.82992823E-06
 -0.481000006       1.67532071E-05
 -0.469999999      -4.60859525E-07
 -0.458999991      -1.67294074E-05
 -0.448000014      -4.34212052E-06
 -0.437000006       3.82204462E-06
 -0.425999999       5.18018214E-06
 -0.414999992       2.14485717E-05
 -0.404000014       7.05248794E-06
 -0.393000007      -4.28270687E-05
 -0.381999999      -2.82816400E-05
 -0.370999992       4.18865056E-05
 -0.360000014       3.68737128E-05
 -0.349000007      -2.79778251E-05
 -0.338000000      -3.45855915E-05
 -0.326999992       8.37307289E-06
 -0.316000015       4.48860374E-05
 -0.305000007       6.49625072E-05
 -0.294000000       3.83663828E-05
 -0.282999992       1.19156184E-05
 -0.272000015       9.50046378E-05
 -0.261000007       1.87735932E-04
 -0.250000000       1.37993178E-04
 -0.238999993       1.13908674E-04
 -0.228000000       2.93441699E-04
 -0.216999993       4.97216184E-04
 -0.206000000       5.82790410E-04
 -0.194999993       6.93201495E-04
 -0.184000000       9.09758324E-04
 -0.172999993       1.22343621E-03
 -0.162000000       1.72261929E-03
 -0.150999993       2.36277143E-03
 -0.140000001       2.97093904E-03
 -0.128999993       3.67204146E-03
 -0.118000001       4.74883104E-03
 -0.107000001       6.18970906E-03
  -9.60000008E-02   7.88357854E-03
  -8.50000009E-02   9.91009735E-03
  -7.40000010E-02   1.23557961E-02
  -6.30000010E-02   1.52938627E-02
  -5.20000011E-02   1.89092215E-02
  -4.10000011E-02   2.32648216E-02
  -2.99999993E-02   2.82733943E-02
  -1.89999994E-02   3.40650231E-02
  -8.00000038E-03   4.08859700E-02
   3.00000003E-03   4.87354733E-02
   1.40000004E-02   5.75576723E-02
   2.50000004E-02   6.74400404E-02
   3.59999985E-02   7.83795267E-02
   4.69999984E-02   9.03267264E-02
   5.79999983E-02  0.103364468
   6.89999983E-02  0.117382519
   7.99999982E-02  0.131964654
   9.09999982E-02  0.146858543
  0.101999998      0.161984965
  0.112999998      0.176988974
  0.123999998      0.191320598
  0.135000005      0.204485372
  0.145999998      0.215888053
  0.157000005      0.224857941
  0.167999998      0.230861485
  0.179000005      0.233302444
  0.189999998      0.231386229
  0.201000005      0.224439129
  0.211999997      0.211979851
  0.223000005      0.193493769
  0.233999997      0.168551818
  0.245000005      0.136980265
  0.256000012       9.86930281E-02
  0.266999990       5.36869913E-02
  0.277999997       2.28300248E-03
  0.289000005      -5.49189635E-02
  0.300000012     -0.117232643
  0.310999990     -0.183810264
  0.321999997     -0.253555477
  0.333000004     -0.325255096
  0.344000012     -0.397621393
  0.354999989     -0.469194740
  0.365999997     -0.538444459
  0.377000004     -0.603975296
  0.388000011     -0.664482296
  0.398999989     -0.718658447
  0.409999996     -0.765357018
  0.421000004     -0.803672373
  0.432000011     -0.832783401
  0.442999989     -0.852005482
  0.453999996     -0.860984981
  0.465000004     -0.859579384
  0.476000011     -0.847691655
  0.486999989     -0.825369060
  0.497999996     -0.792783856
  0.509000003     -0.750087380
  0.519999981     -0.697507441
  0.531000018     -0.635383606
  0.541999996     -0.563941240
  0.552999973     -0.483296096
  0.564000010     -0.393663406
  0.574999988     -0.295316279
  0.586000025     -0.188503414
  0.597000003      -7.35791102E-02
  0.607999980       4.89231981E-02
  0.619000018      0.178293720
  0.629999995      0.313543260
  0.640999973      0.453320175
  0.652000010      0.595917165
  0.662999988      0.739264548
  0.674000025      0.880940557
  0.685000002       1.01819813
  0.695999980       1.14795828
  0.707000017       1.26688492
  0.717999995       1.37155318
  0.728999972       1.45858717
  0.740000010       1.52479696
  0.750999987       1.56732643
  0.762000024       1.58375680
  0.773000002       1.57223666
  0.783999979       1.53164959
  0.795000017       1.46171892
  0.805999994       1.36307788
  0.816999972       1.23730421
  0.828000009       1.08684456
  0.838999987      0.914934635
  0.850000024      0.725576103
  0.861000001      0.523409605
  0.871999979      0.313502431
  0.883000016      0.101185575
  0.893999994     -0.108145684
  0.904999971     -0.309278190
  0.916000009     -0.497347891
  0.926999986     -0.667961657
  0.938000023     -0.817335665
  0.949000001     -0.942466617
  0.959999979      -1.04131377
  0.971000016      -1.11280167
  0.981999993      -1.15665436
  0.992999971      -1.17338979
   1.00399995      -1.16439295
   1.01499999      -1.13175976
   1.02600002      -1.07813418
   1.03699994      -1.00667644
   1.04799998     -0.920842290
   1.05900002     -0.824108243
   1.07000005     -0.719979823
   1.08099997     -0.611940145
   1.09200001     -0.503185332
   1.10300004     -0.396557897
   1.11399996     -0.294575185
   1.12500000     -0.199274614
   1.13600004     -0.112204120
   1.14699996      -3.45724970E-02
   1.15799999       3.28473970E-02
   1.16900003       8.98149684E-02
   1.17999995      0.136426479
   1.19099998      0.173024058
   1.20200002      0.200255588
   1.21300006      0.218922645
   1.22399998      0.229854479
   1.23500001      0.234038547
   1.24600005      0.232603058
   1.25699997      0.226599410
   1.26800001      0.216976672
   1.27900004      0.204646796
   1.28999996      0.190414771
   1.30100000      0.174967676
   1.31200004      0.158935517
   1.32299995      0.142829612
   1.33399999      0.127017245
   1.34500003      0.111830913
   1.35599995       9.75513607E-02
   1.36699998       8.43071416E-02
   1.37800002       7.21597672E-02
   1.38900006       6.11904450E-02
