 -0.959999979       0.00000000
 -0.925000012       0.00000000
 -0.889999986       1.61669949E-22
 -0.855000019      -2.40930602E-15
 -0.819999993      -2.70997942E-14
 -0.785000026       1.67228969E-14
 -0.750000000       1.51773627E-13
 -0.714999974       8.70932395E-13
 -0.680000007      -2.32480897E-12
 -0.644999981      -1.96117580E-12
 -0.610000014      -1.50268253E-12
 -0.574999988       1.43331900E-11
 -0.540000021      -1.42501557E-11
 -0.504999995       7.27496145E-12
 -0.469999999       7.01961961E-11
 -0.435000002       3.51230156E-11
 -0.400000006      -2.64791855E-10
 -0.365000010      -2.31077657E-11
 -0.330000013       2.01873518E-10
 -0.294999987       8.49994519E-10
 -0.259999990      -1.56212143E-09
 -0.224999994      -4.81179374E-10
 -0.189999998       2.68613909E-09
 -0.155000001      -2.02796280E-10
 -0.119999997      -7.68263286E-10
  -8.50000009E-02  -2.94382324E-10
  -5.00000007E-02  -4.86742069E-09
  -1.49999997E-02   5.43448797E-09
   1.99999996E-02   1.05967768E-08
   5.49999997E-02  -7.19656379E-09
   9.00000036E-02  -1.49083821E-08
  0.125000000       7.52727480E-09
  0.159999996       1.04594573E-08
  0.194999993      -3.60028984E-09
  0.230000004      -2.76409651E-09
  0.264999986       1.73354953E-09
  0.300000012       4.77306950E-09
  0.335000008       2.05447890E-08
  0.370000005       1.78578290E-08
  0.405000001      -9.04426845E-09
  0.439999998      -2.10462692E-09
  0.474999994       1.50297375E-08
  0.509999990      -2.69049494E-08
  0.545000017      -1.53406301E-08
  0.579999983       1.10657554E-08
  0.615000010      -3.88013754E-09
  0.649999976       2.56941917E-08
  0.685000002       2.53124011E-08
  0.720000029      -2.75405672E-08
  0.754999995      -2.08605861E-08
  0.790000021      -2.43781773E-09
  0.824999988      -1.87833180E-08
  0.860000014       3.41455086E-09
  0.894999981      -3.21761817E-08
  0.930000007      -3.88285528E-08
  0.964999974       2.53860293E-08
   1.00000000       5.90523896E-08
   1.03499997       1.90596450E-09
   1.07000005       5.00910735E-09
   1.10500002       2.88484703E-08
   1.13999999      -8.14502030E-08
   1.17499995      -1.15369886E-07
   1.21000004      -2.63999489E-09
   1.24500000       2.62701985E-08
   1.27999997      -2.60077360E-09
   1.31500006       8.43112957E-08
   1.35000002       1.14405822E-07
   1.38499999      -2.37528042E-08
   1.41999996      -3.64164521E-08
   1.45500004       3.39763560E-08
   1.49000001      -5.26105488E-08
   1.52499998      -6.62858852E-08
   1.55999994       7.53743450E-08
   1.59500003       6.27415275E-08
   1.63000000      -6.37319957E-08
