 -0.800000012       0.00000000
 -0.788999975       0.00000000
 -0.777999997       0.00000000
 -0.767000020       0.00000000
 -0.755999982       0.00000000
 -0.745000005       2.87178891E-13
 -0.734000027      -1.37521711E-12
 -0.722999990       5.88009285E-12
 -0.712000012      -1.16918662E-11
 -0.700999975      -5.23368068E-12
 -0.689999998       6.66818128E-11
 -0.679000020      -9.22595333E-11
 -0.667999983      -9.21086263E-11
 -0.657000005       4.20618207E-10
 -0.646000028      -2.29864336E-10
 -0.634999990      -9.32485533E-10
 -0.624000013       1.34599565E-09
 -0.612999976       1.22790556E-09
 -0.601999998      -3.06078274E-09
 -0.591000021      -1.02834019E-09
 -0.579999983       3.06849302E-09
 -0.569000006       1.60113756E-09
 -0.558000028       4.71424233E-09
 -0.546999991      -6.66489886E-09
 -0.536000013      -3.03552490E-08
 -0.524999976       1.94352392E-08
 -0.513999999       8.32556069E-08
 -0.503000021      -3.38748691E-08
 -0.492000014      -1.57691730E-07
 -0.481000006       2.83835213E-08
 -0.469999999       2.10878653E-07
 -0.458999991       1.82446929E-08
 -0.448000014      -1.57168088E-07
 -0.437000006      -7.72821878E-08
 -0.425999999      -7.30835339E-08
 -0.414999992       3.66823052E-08
 -0.404000014       3.98786113E-07
 -0.393000007       1.91836691E-07
 -0.381999999      -5.43412000E-07
 -0.370999992      -4.30360188E-07
 -0.360000014       3.78096701E-07
 -0.349000007       3.80865686E-07
 -0.338000000      -2.37424558E-07
 -0.326999992      -3.80026307E-07
 -0.316000015      -5.32051061E-08
 -0.305000007       6.07479251E-07
 -0.294000000       1.37596044E-06
 -0.282999992       1.45152978E-06
 -0.272000015       1.63810193E-06
 -0.261000007       3.54162557E-06
 -0.250000000       5.76830780E-06
 -0.238999993       6.57750616E-06
 -0.228000000       8.27428903E-06
 -0.216999993       1.30331809E-05
 -0.206000000       1.92130083E-05
 -0.194999993       2.58545824E-05
 -0.184000000       3.44635591E-05
 -0.172999993       4.58693030E-05
 -0.162000000       6.13789671E-05
 -0.150999993       8.37669795E-05
 -0.140000001       1.13360293E-04
 -0.128999993       1.49127256E-04
 -0.118000001       1.94144435E-04
 -0.107000001       2.53602280E-04
  -9.60000008E-02   3.30319453E-04
  -8.50000009E-02   4.27040446E-04
  -7.40000010E-02   5.48339798E-04
  -6.30000010E-02   6.98867545E-04
  -5.20000011E-02   8.84805748E-04
  -4.10000011E-02   1.11487205E-03
  -2.99999993E-02   1.39663368E-03
  -1.89999994E-02   1.73688505E-03
  -8.00000038E-03   2.14605825E-03
   3.00000003E-03   2.63637607E-03
   1.40000004E-02   3.21824756E-03
   2.50000004E-02   3.90264858E-03
   3.59999985E-02   4.70191799E-03
   4.69999984E-02   5.62699093E-03
   5.79999983E-02   6.68911496E-03
   6.89999983E-02   7.90101755E-03
   7.99999982E-02   9.27152019E-03
   9.09999982E-02   1.08042285E-02
  0.101999998       1.25024170E-02
  0.112999998       1.43679101E-02
  0.123999998       1.63961723E-02
  0.135000005       1.85769610E-02
  0.145999998       2.08948571E-02
  0.157000005       2.33264919E-02
  0.167999998       2.58417111E-02
  0.179000005       2.84054447E-02
  0.189999998       3.09743844E-02
  0.201000005       3.34959440E-02
  0.211999997       3.59120443E-02
  0.223000005       3.81595232E-02
  0.233999997       4.01689075E-02
  0.245000005       4.18676063E-02
  0.256000012       4.31824327E-02
  0.266999990       4.40389030E-02
  0.277999997       4.43636179E-02
  0.289000005       4.40891236E-02
  0.300000012       4.31553610E-02
  0.310999990       4.15100120E-02
  0.321999997       3.91115472E-02
  0.333000004       3.59317474E-02
  0.344000012       3.19559090E-02
  0.354999989       2.71841194E-02
  0.365999997       2.16336492E-02
  0.377000004       1.53383082E-02
  0.388000011       8.34617298E-03
  0.398999989       7.19732314E-04
  0.409999996      -7.46427523E-03
  0.421000004      -1.61181241E-02
  0.432000011      -2.51450911E-02
  0.442999989      -3.44393849E-02
  0.453999996      -4.38892320E-02
  0.465000004      -5.33810630E-02
  0.476000011      -6.27999380E-02
  0.486999989      -7.20302090E-02
  0.497999996      -8.09580833E-02
  0.509000003      -8.94715711E-02
  0.519999981      -9.74600390E-02
  0.531000018     -0.104816653
  0.541999996     -0.111438431
  0.552999973     -0.117223404
  0.564000010     -0.122070961
  0.574999988     -0.125883967
  0.586000025     -0.128567919
  0.597000003     -0.130031005
  0.607999980     -0.130186543
  0.619000018     -0.128954694
  0.629999995     -0.126264289
  0.640999973     -0.122056916
  0.652000010     -0.116291180
  0.662999988     -0.108946525
  0.674000025     -0.100027256
  0.685000002      -8.95659253E-02
  0.695999980      -7.76270032E-02
  0.707000017      -6.43108189E-02
  0.717999995      -4.97554988E-02
  0.728999972      -3.41367312E-02
  0.740000010      -1.76666584E-02
  0.750999987      -5.91158110E-04
  0.762000024       1.68146007E-02
  0.773000002       3.42515297E-02
  0.783999979       5.14038019E-02
  0.795000017       6.79477826E-02
  0.805999994       8.35616216E-02
  0.816999972       9.79356021E-02
  0.828000009      0.110782422
  0.838999987      0.121846102
  0.850000024      0.130910784
  0.861000001      0.137808740
  0.871999979      0.142425954
  0.883000016      0.144705877
  0.893999994      0.144651935
  0.904999971      0.142326608
  0.916000009      0.137847871
  0.926999986      0.131384999
  0.938000023      0.123152763
  0.949000001      0.113403745
  0.959999979      0.102418505
  0.971000016       9.04945806E-02
  0.981999993       7.79366791E-02
  0.992999971       6.50483668E-02
   1.00399995       5.21224625E-02
   1.01499999       3.94318625E-02
   1.02600002       2.72235274E-02
   1.03699994       1.57125350E-02
   1.04799998       5.07644285E-03
   1.05900002      -4.54586977E-03
   1.07000005      -1.30536510E-02
   1.08099997      -2.03852449E-02
   1.09200001      -2.65163444E-02
   1.10300004      -3.14554237E-02
   1.11399996      -3.52407098E-02
   1.12500000      -3.79361324E-02
   1.13600004      -3.96247543E-02
   1.14699996      -4.04045880E-02
   1.15799999      -4.03853394E-02
   1.16900003      -3.96819822E-02
   1.17999995      -3.84094417E-02
   1.19099998      -3.66805680E-02
   1.20200002      -3.46028320E-02
   1.21300006      -3.22748609E-02
   1.22399998      -2.97864899E-02
   1.23500001      -2.72181146E-02
   1.24600005      -2.46377625E-02
   1.25699997      -2.21009161E-02
   1.26800001      -1.96525473E-02
   1.27900004      -1.73274055E-02
   1.28999996      -1.51503682E-02
   1.30100000      -1.31383203E-02
   1.31200004      -1.13010490E-02
   1.32299995      -9.64170415E-03
   1.33399999      -8.15875083E-03
   1.34500003      -6.84720511E-03
   1.35599995      -5.69840940E-03
   1.36699998      -4.70122090E-03
   1.37800002      -3.84382578E-03
   1.38900006      -3.11365747E-03
