 -0.959999979      -9.75051626E-06
 -0.925000012      -1.56808564E-05
 -0.889999986      -1.14531058E-05
 -0.855000019      -3.35506884E-05
 -0.819999993      -9.46209548E-05
 -0.785000026      -1.86725563E-04
 -0.750000000      -3.18903185E-04
 -0.714999974      -5.14336338E-04
 -0.680000007      -8.03130679E-04
 -0.644999981      -1.16795383E-03
 -0.610000014      -1.45482190E-03
 -0.574999988      -1.40389265E-03
 -0.540000021      -7.17225776E-04
 -0.504999995       9.95317474E-04
 -0.469999999       4.14716220E-03
 -0.435000002       8.81854165E-03
 -0.400000006       1.44302193E-02
 -0.365000010       1.95511300E-02
 -0.330000013       2.16871798E-02
 -0.294999987       1.74792800E-02
 -0.259999990       3.81270517E-03
 -0.224999994      -2.06785463E-02
 -0.189999998      -5.45852780E-02
 -0.155000001      -9.34735984E-02
 -0.119999997     -0.130828157
  -8.50000009E-02 -0.160918549
  -5.00000007E-02 -0.183150470
  -1.49999997E-02 -0.205773935
   1.99999996E-02 -0.246475652
   5.49999997E-02 -0.328086764
   9.00000036E-02 -0.468787730
  0.125000000     -0.668563664
  0.159999996     -0.896877766
  0.194999993      -1.08814740
  0.230000004      -1.15018404
  0.264999986     -0.986830473
  0.300000012     -0.530437768
  0.335000008      0.225913152
  0.370000005       1.20912445
  0.405000001       2.26945829
  0.439999998       3.20878792
  0.474999994       3.82679486
  0.509999990       3.97102976
  0.545000017       3.57524753
  0.579999983       2.67548132
  0.615000010       1.40145922
  0.649999976      -5.19984774E-02
  0.685000002      -1.46482837
  0.720000029      -2.63329983
  0.754999995      -3.40577555
  0.790000021      -3.70716882
  0.824999988      -3.54755569
  0.860000014      -3.01255107
  0.894999981      -2.23781157
  0.930000007      -1.37507510
  0.964999974     -0.559695184
   1.00000000      0.111314856
   1.03499997      0.586492121
   1.07000005      0.855111063
   1.10500002      0.937510431
   1.13999999      0.876301169
   1.17499995      0.729110837
   1.21000004      0.559789419
   1.24500000      0.425503343
   1.27999997      0.361431539
   1.31500006      0.369701713
   1.35000002      0.420198768
   1.38499999      0.465537727
   1.41999996      0.463818192
   1.45500004      0.397157997
   1.49000001      0.275947511
   1.52499998      0.127552643
   1.55999994      -2.18305066E-02
   1.59500003     -0.159430206
   1.63000000     -0.284548610
