 -0.800000012       0.00000000
 -0.788999975       0.00000000
 -0.777999997       0.00000000
 -0.767000020       0.00000000
 -0.755999982      -1.02142304E-08
 -0.745000005      -1.74051795E-08
 -0.734000027       1.19546527E-07
 -0.722999990       5.92803246E-08
 -0.712000012      -3.89694463E-07
 -0.700999975       3.99850784E-08
 -0.689999998       7.35097728E-07
 -0.679000020      -5.45821081E-07
 -0.667999983      -7.39740585E-07
 -0.657000005       1.60173192E-06
 -0.646000028      -1.63572281E-07
 -0.634999990      -2.58714385E-06
 -0.624000013       2.99213934E-06
 -0.612999976       3.23626614E-06
 -0.601999998      -7.10856693E-06
 -0.591000021      -2.74267131E-06
 -0.579999983       1.02252907E-05
 -0.569000006      -1.52258409E-07
 -0.558000028      -9.27292149E-06
 -0.546999991       8.05814034E-06
 -0.536000013       7.02891748E-06
 -0.524999976      -1.49990719E-05
 -0.513999999      -1.52497466E-06
 -0.503000021       1.77857510E-05
 -0.492000014      -5.84056306E-06
 -0.481000006      -1.28155098E-05
 -0.469999999       1.53561559E-05
 -0.458999991       6.40642975E-06
 -0.448000014      -1.32372370E-05
 -0.437000006       1.34329121E-05
 -0.425999999       1.67824455E-05
 -0.414999992      -1.81787382E-05
 -0.404000014      -1.99340136E-08
 -0.393000007       3.15826001E-05
 -0.381999999       1.22481231E-06
 -0.370999992      -8.27990846E-07
 -0.360000014       4.89628728E-05
 -0.349000007       3.23662971E-05
 -0.338000000      -3.71044348E-06
 -0.326999992       5.42284761E-05
 -0.316000015       1.01338526E-04
 -0.305000007       6.94339687E-05
 -0.294000000       9.31526083E-05
 -0.282999992       1.73773878E-04
 -0.272000015       1.92779407E-04
 -0.261000007       2.26084609E-04
 -0.250000000       3.51901224E-04
 -0.238999993       4.52997891E-04
 -0.228000000       5.22709801E-04
 -0.216999993       6.91845431E-04
 -0.206000000       9.16152727E-04
 -0.194999993       1.12245965E-03
 -0.184000000       1.41939078E-03
 -0.172999993       1.82662532E-03
 -0.162000000       2.23628455E-03
 -0.150999993       2.72486103E-03
 -0.140000001       3.40951257E-03
 -0.128999993       4.18927753E-03
 -0.118000001       5.02506876E-03
 -0.107000001       6.06723642E-03
  -9.60000008E-02   7.31495861E-03
  -8.50000009E-02   8.65207240E-03
  -7.40000010E-02   1.01632653E-02
  -6.30000010E-02   1.19468048E-02
  -5.20000011E-02   1.38814356E-02
  -4.10000011E-02   1.59035623E-02
  -2.99999993E-02   1.81180052E-02
  -1.89999994E-02   2.04982124E-02
  -8.00000038E-03   2.28936113E-02
   3.00000003E-03   2.52754521E-02
   1.40000004E-02   2.76197661E-02
   2.50000004E-02   2.97483634E-02
   3.59999985E-02   3.15134414E-02
   4.69999984E-02   3.28483582E-02
   5.79999983E-02   3.35571356E-02
   6.89999983E-02   3.33651565E-02
   7.99999982E-02   3.21013890E-02
   9.09999982E-02   2.95608751E-02
  0.101999998       2.54064109E-02
  0.112999998       1.93820931E-02
  0.123999998       1.13129374E-02
  0.135000005       8.82277382E-04
  0.145999998      -1.22250253E-02
  0.157000005      -2.81088483E-02
  0.167999998      -4.68773320E-02
  0.179000005      -6.87420964E-02
  0.189999998      -9.37076882E-02
  0.201000005     -0.121578537
  0.211999997     -0.152230144
  0.223000005     -0.185438648
  0.233999997     -0.220660493
  0.245000005     -0.257278532
  0.256000012     -0.294693202
  0.266999990     -0.332059056
  0.277999997     -0.368332028
  0.289000005     -0.402494550
  0.300000012     -0.433436632
  0.310999990     -0.459880382
  0.321999997     -0.480605096
  0.333000004     -0.494486779
  0.344000012     -0.500364542
  0.354999989     -0.497169346
  0.365999997     -0.484088689
  0.377000004     -0.460484892
  0.388000011     -0.425895631
  0.398999989     -0.380210727
  0.409999996     -0.323673397
  0.421000004     -0.256765813
  0.432000011     -0.180288300
  0.442999989      -9.54607651E-02
  0.453999996      -3.80869652E-03
  0.465000004       9.29343700E-02
  0.476000011      0.192768142
  0.486999989      0.293474138
  0.497999996      0.392782211
  0.509000003      0.488387644
  0.519999981      0.577941954
  0.531000018      0.659232557
  0.541999996      0.730306566
  0.552999973      0.789423466
  0.564000010      0.835124433
  0.574999988      0.866372287
  0.586000025      0.882517278
  0.597000003      0.883273184
  0.607999980      0.868831575
  0.619000018      0.839847982
  0.629999995      0.797302186
  0.640999973      0.742483556
  0.652000010      0.677023590
  0.662999988      0.602803111
  0.674000025      0.521832883
  0.685000002      0.436200321
  0.695999980      0.348034501
  0.707000017      0.259426117
  0.717999995      0.172312722
  0.728999972       8.84464234E-02
  0.740000010       9.42955632E-03
  0.750999987      -6.33733198E-02
  0.762000024     -0.128957570
  0.773000002     -0.186595127
  0.783999979     -0.235753179
  0.795000017     -0.276204765
  0.805999994     -0.308025241
  0.816999972     -0.331444591
  0.828000009     -0.346882999
  0.838999987     -0.354998142
  0.850000024     -0.356517822
  0.861000001     -0.352193087
  0.871999979     -0.342901498
  0.883000016     -0.329533666
  0.893999994     -0.312881142
  0.904999971     -0.293772101
  0.916000009     -0.273035914
  0.926999986     -0.251292735
  0.938000023     -0.229076385
  0.949000001     -0.207002625
  0.959999979     -0.185538560
  0.971000016     -0.164911896
  0.981999993     -0.145395577
  0.992999971     -0.127285257
   1.00399995     -0.110633619
   1.01499999      -9.54152271E-02
   1.02600002      -8.17461833E-02
   1.03699994      -6.96432069E-02
   1.04799998      -5.89286573E-02
   1.05900002      -4.95194681E-02
   1.07000005      -4.14085463E-02
   1.08099997      -3.44317630E-02
   1.09200001      -2.84189954E-02
   1.10300004      -2.33365484E-02
   1.11399996      -1.90724041E-02
   1.12500000      -1.54356845E-02
   1.13600004      -1.23776263E-02
   1.14699996      -9.86668188E-03
   1.15799999      -7.74818007E-03
   1.16900003      -5.95949451E-03
   1.17999995      -4.53350507E-03
   1.19099998      -3.35754477E-03
   1.20200002      -2.32197414E-03
   1.21300006      -1.51179708E-03
   1.22399998      -9.32998664E-04
   1.23500001      -4.27178311E-04
   1.24600005       1.03147715E-06
   1.25699997       2.41847898E-04
   1.26800001       3.86421802E-04
   1.27900004       5.36824460E-04
   1.28999996       5.92689321E-04
   1.30100000       5.29930345E-04
   1.31200004       4.82540228E-04
   1.32299995       4.44537203E-04
   1.33399999       3.21724714E-04
   1.34500003       1.75484340E-04
   1.35599995       6.94148694E-05
   1.36699998      -6.38592683E-05
   1.37800002      -2.21686671E-04
   1.38900006      -3.29701346E-04
