 -0.959999979       0.00000000
 -0.925000012       9.54433949E-22
 -0.889999986       2.57153618E-20
 -0.855000019       3.23666929E-13
 -0.819999993       9.71851180E-13
 -0.785000026      -1.28152664E-12
 -0.750000000      -9.72647657E-12
 -0.714999974      -2.32359201E-11
 -0.680000007       1.66777356E-10
 -0.644999981       6.07508766E-11
 -0.610000014      -1.95237548E-10
 -0.574999988      -3.52557983E-10
 -0.540000021      -1.95487432E-10
 -0.504999995       1.04033548E-09
 -0.469999999       6.68995859E-10
 -0.435000002       4.21285062E-10
 -0.400000006       3.99900335E-09
 -0.365000010      -8.47440518E-09
 -0.330000013       1.79991355E-09
 -0.294999987       7.57068630E-09
 -0.259999990      -3.06108880E-08
 -0.224999994       9.10277187E-09
 -0.189999998       9.82889361E-08
 -0.155000001      -3.42402871E-08
 -0.119999997      -2.04351963E-07
  -8.50000009E-02   4.16832009E-08
  -5.00000007E-02   2.32760598E-07
  -1.49999997E-02  -1.93612344E-08
   1.99999996E-02  -8.51776036E-08
   5.49999997E-02   1.16473755E-08
   9.00000036E-02  -1.50921878E-07
  0.125000000      -3.57905122E-10
  0.159999996       3.19791468E-07
  0.194999993       1.29253735E-07
  0.230000004      -5.27191730E-08
  0.264999986      -2.75751660E-07
  0.300000012      -5.68294183E-07
  0.335000008       1.36199404E-07
  0.370000005       7.30062709E-07
  0.405000001      -1.51306139E-07
  0.439999998      -7.14745170E-07
  0.474999994      -1.33366820E-08
  0.509999990       5.61781860E-07
  0.545000017       4.71612140E-07
  0.579999983       3.16514637E-08
  0.615000010      -3.20599952E-07
  0.649999976      -1.35632121E-07
  0.685000002       9.81438149E-08
  0.720000029      -6.98539608E-08
  0.754999995       9.07299693E-08
  0.790000021       3.44714238E-07
  0.824999988      -8.98467079E-07
  0.860000014      -2.06483037E-06
  0.894999981      -2.66913844E-07
  0.930000007       2.84368389E-06
  0.964999974       2.86586464E-06
   1.00000000      -1.06291111E-06
   1.03499997      -3.96613996E-06
   1.07000005      -1.52925270E-06
   1.10500002       2.18619903E-06
   1.13999999       1.54596410E-06
   1.17499995      -3.84443354E-07
   1.21000004       3.75793832E-07
   1.24500000       1.13062640E-06
   1.27999997       1.47662334E-07
   1.31500006      -9.65701474E-07
   1.35000002      -1.70977989E-06
   1.38499999      -1.16250089E-06
   1.41999996       1.16338094E-06
   1.45500004       2.81308894E-06
   1.49000001       1.88750460E-06
   1.52499998      -5.92945582E-07
   1.55999994      -2.64711252E-06
   1.59500003      -2.37679319E-06
   1.63000000       1.42599404E-07
