 -0.959999979       0.00000000
 -0.925000012       2.31355634E-17
 -0.889999986       2.42322884E-10
 -0.855000019      -5.59765734E-10
 -0.819999993      -3.75369652E-10
 -0.785000026      -1.28595543E-08
 -0.750000000       5.69160008E-09
 -0.714999974       4.71648427E-08
 -0.680000007       1.64724145E-08
 -0.644999981      -4.70170924E-08
 -0.610000014       4.71980215E-08
 -0.574999988      -7.61992425E-08
 -0.540000021       4.07952108E-08
 -0.504999995       3.06313325E-07
 -0.469999999       2.15568264E-07
 -0.435000002       1.36476160E-07
 -0.400000006      -1.19044853E-06
 -0.365000010       1.17112786E-05
 -0.330000013      -4.14455790E-05
 -0.294999987       3.56681776E-05
 -0.259999990       2.41471971E-05
 -0.224999994      -3.21079897E-05
 -0.189999998      -1.93753549E-05
 -0.155000001       2.44413368E-05
 -0.119999997       1.49871630E-05
  -8.50000009E-02   2.73546743E-06
  -5.00000007E-02  -4.53483372E-05
  -1.49999997E-02  -9.18818785E-07
   1.99999996E-02   1.65705387E-05
   5.49999997E-02   4.14003152E-05
   9.00000036E-02  -8.28798784E-06
  0.125000000      -4.91942010E-05
  0.159999996      -3.24940544E-07
  0.194999993       2.00090526E-05
  0.230000004      -2.22251083E-06
  0.264999986       3.41043451E-05
  0.300000012       1.99965616E-05
  0.335000008      -2.81129196E-05
  0.370000005      -4.26798542E-05
  0.405000001      -2.81233752E-05
  0.439999998       1.74822253E-05
  0.474999994       4.80780764E-05
  0.509999990       2.84837424E-05
  0.545000017       2.90567800E-06
  0.579999983      -5.06723118E-05
  0.615000010      -7.18049632E-05
  0.649999976       1.11124218E-05
  0.685000002       1.33301975E-04
  0.720000029       6.98387958E-05
  0.754999995      -1.22024729E-04
  0.790000021      -1.62158860E-04
  0.824999988       6.91543755E-05
  0.860000014       1.95956003E-04
  0.894999981       9.89922100E-08
  0.930000007      -1.55639020E-04
  0.964999974      -6.09482122E-05
   1.00000000       5.84781337E-05
   1.03499997       6.29311107E-05
   1.07000005       3.96306568E-05
   1.10500002      -3.69644135E-06
   1.13999999      -7.04611812E-05
   1.17499995      -6.16790858E-05
   1.21000004       1.58680650E-05
   1.24500000       7.20632670E-05
   1.27999997       6.61976082E-05
   1.31500006      -2.50057001E-05
   1.35000002      -7.57478920E-05
   1.38499999      -5.00004376E-07
   1.41999996       3.02190329E-05
   1.45500004      -4.18123091E-05
   1.49000001      -1.21976500E-05
   1.52499998       7.51906264E-05
   1.55999994       9.78894695E-06
   1.59500003      -5.48674143E-05
   1.63000000       1.27761068E-05
