 -0.800000012       0.00000000
 -0.788999975       0.00000000
 -0.777999997       0.00000000
 -0.767000020      -1.82193709E-08
 -0.755999982      -4.18974615E-08
 -0.745000005       4.69074308E-07
 -0.734000027      -2.90906627E-07
 -0.722999990      -2.41927319E-06
 -0.712000012       2.78070684E-06
 -0.700999975       6.22822927E-06
 -0.689999998      -1.03817656E-05
 -0.679000020      -8.57081614E-06
 -0.667999983       2.58569944E-05
 -0.657000005       1.87347439E-06
 -0.646000028      -4.97191431E-05
 -0.634999990       1.83690245E-05
 -0.624000013       7.41558179E-05
 -0.612999976      -4.45202095E-05
 -0.601999998      -7.41292388E-05
 -0.591000021       6.54307805E-05
 -0.579999983       1.91025701E-05
 -0.569000006      -8.64716567E-05
 -0.558000028       8.02841023E-05
 -0.546999991       1.13985567E-04
 -0.536000013      -1.50421751E-04
 -0.524999976      -1.08280212E-04
 -0.513999999       1.33351845E-04
 -0.503000021       2.35711905E-05
 -0.492000014      -5.18274501E-05
 -0.481000006       9.15529454E-05
 -0.469999999      -6.46245098E-05
 -0.458999991      -1.42243938E-04
 -0.448000014       2.23828334E-04
 -0.437000006       1.33035996E-04
 -0.425999999      -3.71177419E-04
 -0.414999992      -2.24466450E-04
 -0.404000014       5.70957600E-05
 -0.393000007      -1.31024019E-04
 -0.381999999       8.21181384E-05
 -0.370999992       2.87205941E-04
 -0.360000014      -5.15033025E-04
 -0.349000007      -8.78972816E-04
 -0.338000000      -7.55185247E-05
 -0.326999992      -5.26843178E-05
 -0.316000015      -8.76569888E-04
 -0.305000007      -9.79549484E-04
 -0.294000000      -1.18239422E-03
 -0.282999992      -1.96979591E-03
 -0.272000015      -1.86364900E-03
 -0.261000007      -1.69422664E-03
 -0.250000000      -3.04618990E-03
 -0.238999993      -4.38280078E-03
 -0.228000000      -5.04727289E-03
 -0.216999993      -6.55013556E-03
 -0.206000000      -7.98023306E-03
 -0.194999993      -8.60593747E-03
 -0.184000000      -1.09724486E-02
 -0.172999993      -1.49091436E-02
 -0.162000000      -1.73529480E-02
 -0.150999993      -1.94471702E-02
 -0.140000001      -2.34874971E-02
 -0.128999993      -2.76578870E-02
 -0.118000001      -3.13634165E-02
 -0.107000001      -3.65489163E-02
  -9.60000008E-02  -4.20042947E-02
  -8.50000009E-02  -4.62639071E-02
  -7.40000010E-02  -5.14656119E-02
  -6.30000010E-02  -5.77666052E-02
  -5.20000011E-02  -6.28066584E-02
  -4.10000011E-02  -6.74068630E-02
  -2.99999993E-02  -7.26654679E-02
  -1.89999994E-02  -7.66195804E-02
  -8.00000038E-03  -7.94069171E-02
   3.00000003E-03  -8.30001384E-02
   1.40000004E-02  -8.57978538E-02
   2.50000004E-02  -8.61815810E-02
   3.59999985E-02  -8.63363817E-02
   4.69999984E-02  -8.71827379E-02
   5.79999983E-02  -8.74381289E-02
   6.89999983E-02  -8.82360637E-02
   7.99999982E-02  -9.11418498E-02
   9.09999982E-02  -9.54449326E-02
  0.101999998     -0.102124065
  0.112999998     -0.114349626
  0.123999998     -0.133206218
  0.135000005     -0.158809885
  0.145999998     -0.193113819
  0.157000005     -0.237794191
  0.167999998     -0.293601573
  0.179000005     -0.362440467
  0.189999998     -0.445556939
  0.201000005     -0.541628420
  0.211999997     -0.649769843
  0.223000005     -0.770336390
  0.233999997     -0.901231945
  0.245000005      -1.03802466
  0.256000012      -1.17703998
  0.266999990      -1.31398702
  0.277999997      -1.44197714
  0.289000005      -1.55399573
  0.300000012      -1.64364243
  0.310999990      -1.70241177
  0.321999997      -1.72074294
  0.333000004      -1.69111943
  0.344000012      -1.60687280
  0.354999989      -1.46104586
  0.365999997      -1.24865139
  0.377000004     -0.966783345
  0.388000011     -0.613521039
  0.398999989     -0.190302566
  0.409999996      0.297242433
  0.421000004      0.841952145
  0.432000011       1.43429804
  0.442999989       2.06015444
  0.453999996       2.70327640
  0.465000004       3.34666610
  0.476000011       3.97012830
  0.486999989       4.55172253
  0.497999996       5.07137775
  0.509000003       5.50956202
  0.519999981       5.84628534
  0.531000018       6.06459618
  0.541999996       6.15190363
  0.552999973       6.09860802
  0.564000010       5.89940023
  0.574999988       5.55456829
  0.586000025       5.06876421
  0.597000003       4.45108509
  0.607999980       3.71607757
  0.619000018       2.88262582
  0.629999995       1.97282839
  0.640999973       1.01184750
  0.652000010       2.65325699E-02
  0.662999988     -0.955990493
  0.674000025      -1.90849388
  0.685000002      -2.80473828
  0.695999980      -3.62130094
  0.707000017      -4.33800840
  0.717999995      -4.93808079
  0.728999972      -5.40922117
  0.740000010      -5.74409389
  0.750999987      -5.93980408
  0.762000024      -5.99775505
  0.773000002      -5.92397213
  0.783999979      -5.72879314
  0.795000017      -5.42560577
  0.805999994      -5.02970314
  0.816999972      -4.55810452
  0.828000009      -4.02933311
  0.838999987      -3.46224260
  0.850000024      -2.87497497
  0.861000001      -2.28469372
  0.871999979      -1.70704949
  0.883000016      -1.15532482
  0.893999994     -0.640450239
  0.904999971     -0.171592742
  0.916000009      0.244193867
  0.926999986      0.603004932
  0.938000023      0.903785765
  0.949000001       1.14668453
  0.959999979       1.33276010
  0.971000016       1.46521997
  0.981999993       1.54905176
  0.992999971       1.58936250
   1.00399995       1.59158802
   1.01499999       1.56218350
   1.02600002       1.50723457
   1.03699994       1.43171477
   1.04799998       1.34086490
   1.05900002       1.24023008
   1.07000005       1.13426363
   1.08099997       1.02646053
   1.09200001      0.919807613
   1.10300004      0.816383541
   1.11399996      0.718041718
   1.12500000      0.626825094
   1.13600004      0.543455660
   1.14699996      0.467526436
   1.15799999      0.399487466
   1.16900003      0.339615017
   1.17999995      0.286517352
   1.19099998      0.239598691
   1.20200002      0.199832156
   1.21300006      0.166257143
   1.22399998      0.136380911
   1.23500001      0.110229827
   1.24600005       8.88764486E-02
   1.25699997       7.08993077E-02
   1.26800001       5.48908934E-02
   1.27900004       4.17018496E-02
   1.28999996       3.12453210E-02
   1.30100000       2.19495837E-02
   1.31200004       1.40177114E-02
   1.32299995       8.35879426E-03
   1.33399999       4.00574878E-03
   1.34500003       1.82870688E-04
   1.35599995      -2.57204543E-03
   1.36699998      -4.63308487E-03
   1.37800002      -6.48553949E-03
   1.38900006      -7.16844248E-03
