 -0.959999979       0.00000000
 -0.925000012       4.33324167E-23
 -0.889999986      -9.18205885E-08
 -0.855000019      -1.47097342E-06
 -0.819999993      -3.34273341E-06
 -0.785000026      -2.11262000E-06
 -0.750000000      -3.56753662E-06
 -0.714999974      -1.96862111E-05
 -0.680000007      -4.49591680E-05
 -0.644999981      -6.76297568E-05
 -0.610000014      -1.03427432E-04
 -0.574999988      -1.79151029E-04
 -0.540000021      -2.97891180E-04
 -0.504999995      -4.48206934E-04
 -0.469999999      -6.13032316E-04
 -0.435000002      -7.60753930E-04
 -0.400000006      -8.68361967E-04
 -0.365000010      -9.37524252E-04
 -0.330000013      -9.74983268E-04
 -0.294999987      -1.05004630E-03
 -0.259999990      -1.44583732E-03
 -0.224999994      -2.75806081E-03
 -0.189999998      -5.93807176E-03
 -0.155000001      -1.23765375E-02
 -0.119999997      -2.39148550E-02
  -8.50000009E-02  -4.25957143E-02
  -5.00000007E-02  -7.01062903E-02
  -1.49999997E-02 -0.106859036
   1.99999996E-02 -0.150703371
   5.49999997E-02 -0.195632413
   9.00000036E-02 -0.231122419
  0.125000000     -0.242745608
  0.159999996     -0.214623481
  0.194999993     -0.133769006
  0.230000004       4.74502193E-03
  0.264999986      0.193614990
  0.300000012      0.411829501
  0.335000008      0.626998603
  0.370000005      0.801453948
  0.405000001      0.900354743
  0.439999998      0.899068356
  0.474999994      0.787771761
  0.509999990      0.572571933
  0.545000017      0.273626745
  0.579999983      -7.83005431E-02
  0.615000010     -0.445391059
  0.649999976     -0.786124825
  0.685000002      -1.05912971
  0.720000029      -1.22808230
  0.754999995      -1.26752579
  0.790000021      -1.16856205
  0.824999988     -0.942428589
  0.860000014     -0.620001912
  0.894999981     -0.246656775
  0.930000007      0.126372173
  0.964999974      0.451773167
   1.00000000      0.694209576
   1.03499997      0.834446490
   1.07000005      0.869197607
   1.10500002      0.808065355
   1.13999999      0.669608355
   1.17499995      0.478171676
   1.21000004      0.261823624
   1.24500000       5.02790324E-02
   1.27999997     -0.128580347
   1.31500006     -0.253665388
   1.35000002     -0.315456510
   1.38499999     -0.318090886
   1.41999996     -0.276983500
   1.45500004     -0.212461188
   1.49000001     -0.142380223
   1.52499998      -7.74781182E-02
   1.55999994      -2.14983523E-02
   1.59500003       2.49234494E-02
   1.63000000       5.99830784E-02
