 -0.959999979       0.00000000
 -0.925000012       2.07972288E-08
 -0.889999986       2.60027207E-07
 -0.855000019       3.92678373E-07
 -0.819999993       5.60405681E-07
 -0.785000026       1.85385102E-06
 -0.750000000       4.07468406E-06
 -0.714999974       8.79778236E-06
 -0.680000007       1.76370468E-05
 -0.644999981       2.66885763E-05
 -0.610000014       4.27175728E-05
 -0.574999988       8.38400156E-05
 -0.540000021       1.41434590E-04
 -0.504999995       1.94079868E-04
 -0.469999999       2.57098145E-04
 -0.435000002       3.38235550E-04
 -0.400000006       3.95977637E-04
 -0.365000010       4.27606021E-04
 -0.330000013       5.17063716E-04
 -0.294999987       8.08199053E-04
 -0.259999990       1.64004881E-03
 -0.224999994       3.75057291E-03
 -0.189999998       8.29118397E-03
 -0.155000001       1.67934317E-02
 -0.119999997       3.11227888E-02
  -8.50000009E-02   5.30299619E-02
  -5.00000007E-02   8.32647756E-02
  -1.49999997E-02  0.120628156
   1.99999996E-02  0.161065266
   5.49999997E-02  0.196999043
   9.00000036E-02  0.217621416
  0.125000000      0.210543483
  0.159999996      0.164487168
  0.194999993       7.25798830E-02
  0.230000004      -6.44200891E-02
  0.264999986     -0.236208662
  0.300000012     -0.423270494
  0.335000008     -0.599419355
  0.370000005     -0.736019731
  0.405000001     -0.807095408
  0.439999998     -0.794053912
  0.474999994     -0.688918650
  0.509999990     -0.495789319
  0.545000017     -0.230599090
  0.579999983       8.07518959E-02
  0.615000010      0.405482948
  0.649999976      0.707660019
  0.685000002      0.952213287
  0.720000029       1.10898030
  0.754999995       1.15642440
  0.790000021       1.08478332
  0.824999988      0.898439765
  0.860000014      0.617087305
  0.894999981      0.274969280
  0.930000007      -8.26502293E-02
  0.964999974     -0.406159759
   1.00000000     -0.650668740
   1.03499997     -0.785497963
   1.07000005     -0.801314831
   1.10500002     -0.712119222
   1.13999999     -0.550749242
   1.17499995     -0.359153897
   1.21000004     -0.176788896
   1.24500000      -3.11497413E-02
   1.27999997       6.64248616E-02
   1.31500006      0.118873611
   1.35000002      0.137405202
   1.38499999      0.134816930
   1.41999996      0.121128313
   1.45500004      0.102665775
   1.49000001       8.36291239E-02
   1.52499998       6.79574460E-02
   1.55999994       5.95905520E-02
   1.59500003       6.07388802E-02
   1.63000000       6.95419759E-02
