 -0.959999979       0.00000000
 -0.925000012      -5.26133592E-20
 -0.889999986      -1.58295051E-22
 -0.855000019      -1.71192713E-11
 -0.819999993      -4.72953204E-11
 -0.785000026       2.27835029E-10
 -0.750000000      -9.72732866E-11
 -0.714999974      -1.66408640E-11
 -0.680000007      -9.02183050E-10
 -0.644999981      -1.86036553E-09
 -0.610000014       1.06222471E-08
 -0.574999988       2.60882010E-10
 -0.540000021      -4.63510972E-08
 -0.504999995      -2.24943069E-08
 -0.469999999       6.15309190E-08
 -0.435000002       1.79196704E-07
 -0.400000006      -1.88592679E-07
 -0.365000010      -6.38878390E-08
 -0.330000013      -1.67480565E-07
 -0.294999987       1.14316947E-06
 -0.259999990      -1.91633649E-06
 -0.224999994      -1.50149197E-06
 -0.189999998       7.05552202E-06
 -0.155000001      -1.62896731E-06
 -0.119999997      -9.12858650E-06
  -8.50000009E-02   1.82207418E-06
  -5.00000007E-02   7.47245713E-06
  -1.49999997E-02   3.60446688E-06
   1.99999996E-02  -5.59449745E-06
   5.49999997E-02  -1.27048879E-05
   9.00000036E-02   8.91572108E-06
  0.125000000       2.26415068E-05
  0.159999996      -2.37176046E-05
  0.194999993      -1.88773010E-05
  0.230000004       4.21965851E-05
  0.264999986       2.94403048E-06
  0.300000012      -5.02943185E-05
  0.335000008       1.43223160E-05
  0.370000005       2.85229762E-05
  0.405000001      -1.07073129E-05
  0.439999998      -1.58420880E-05
  0.474999994       2.70107989E-06
  0.509999990       1.70220392E-05
  0.545000017       2.45677002E-05
  0.579999983      -2.34711097E-05
  0.615000010      -2.91037741E-05
  0.649999976      -5.56035911E-06
  0.685000002       4.97739757E-06
  0.720000029       2.26400152E-06
  0.754999995       5.81827408E-05
  0.790000021       2.43905451E-05
  0.824999988      -8.23119699E-05
  0.860000014      -5.06572469E-05
  0.894999981       3.14730678E-05
  0.930000007       5.19059395E-05
  0.964999974       6.40903381E-05
   1.00000000      -3.03964243E-05
   1.03499997      -1.13269212E-04
   1.07000005      -2.24467221E-05
   1.10500002       1.07137770E-04
   1.13999999       7.47046070E-05
   1.17499995      -3.90910245E-05
   1.21000004      -9.48715824E-05
   1.24500000      -6.54366886E-05
   1.27999997       5.99338055E-05
   1.31500006       1.16557167E-04
   1.35000002      -4.56404450E-06
   1.38499999      -7.13218469E-05
   1.41999996      -2.58885320E-05
   1.45500004      -3.07465839E-08
   1.49000001       8.26403630E-06
   1.52499998       3.44374348E-05
   1.55999994       2.57604424E-05
   1.59500003      -1.51186641E-05
   1.63000000      -3.69441586E-05
