 -0.800000012       0.00000000
 -0.788999975       0.00000000
 -0.777999997       0.00000000
 -0.767000020       5.43103756E-13
 -0.755999982       1.35070807E-12
 -0.745000005       2.97480096E-11
 -0.734000027      -1.26382738E-10
 -0.722999990       2.62792760E-10
 -0.712000012      -3.91123689E-10
 -0.700999975      -6.36762532E-10
 -0.689999998       5.51778134E-09
 -0.679000020      -7.11152648E-09
 -0.667999983      -1.80886435E-08
 -0.657000005       5.07907387E-08
 -0.646000028       1.84573334E-08
 -0.634999990      -1.73614112E-07
 -0.624000013       6.40822932E-08
 -0.612999976       3.87457590E-07
 -0.601999998      -3.39363623E-07
 -0.591000021      -5.81793984E-07
 -0.579999983       8.53017866E-07
 -0.569000006       4.43506423E-07
 -0.558000028      -1.42995134E-06
 -0.546999991       4.87688339E-07
 -0.536000013       1.65257791E-06
 -0.524999976      -2.42360125E-06
 -0.513999999      -1.09077746E-06
 -0.503000021       4.50607695E-06
 -0.492000014      -5.86394890E-07
 -0.481000006      -4.26307770E-06
 -0.469999999       4.12345162E-06
 -0.458999991      -8.17345892E-07
 -0.448000014      -1.04908440E-05
 -0.437000006       9.47315948E-06
 -0.425999999       1.71779957E-05
 -0.414999992      -1.66676891E-05
 -0.404000014      -1.50115475E-05
 -0.393000007       2.18713012E-05
 -0.381999999      -1.30478418E-06
 -0.370999992      -2.80027161E-05
 -0.360000014       2.12147170E-05
 -0.349000007       2.14008178E-05
 -0.338000000      -4.67878017E-05
 -0.326999992      -1.38593157E-06
 -0.316000015       8.70930526E-05
 -0.305000007       2.77023373E-05
 -0.294000000      -1.34509482E-05
 -0.282999992       9.48071465E-05
 -0.272000015       1.19896460E-04
 -0.261000007       5.76121929E-05
 -0.250000000       1.58066512E-04
 -0.238999993       2.84305628E-04
 -0.228000000       2.54518760E-04
 -0.216999993       3.35417019E-04
 -0.206000000       5.99205785E-04
 -0.194999993       7.53665634E-04
 -0.184000000       9.01486084E-04
 -0.172999993       1.30799005E-03
 -0.162000000       1.76734710E-03
 -0.150999993       2.18349905E-03
 -0.140000001       2.87558488E-03
 -0.128999993       3.83262290E-03
 -0.118000001       4.83254436E-03
 -0.107000001       6.10875757E-03
  -9.60000008E-02   7.86335208E-03
  -8.50000009E-02   9.90130380E-03
  -7.40000010E-02   1.23001980E-02
  -6.30000010E-02   1.53577980E-02
  -5.20000011E-02   1.89868547E-02
  -4.10000011E-02   2.31554490E-02
  -2.99999993E-02   2.82037091E-02
  -1.89999994E-02   3.41784991E-02
  -8.00000038E-03   4.09138650E-02
   3.00000003E-03   4.86541651E-02
   1.40000004E-02   5.75773828E-02
   2.50000004E-02   6.74439892E-02
   3.59999985E-02   7.83076286E-02
   4.69999984E-02   9.04236734E-02
   5.79999983E-02  0.103510581
   6.89999983E-02  0.117259569
   7.99999982E-02  0.131821766
   9.09999982E-02  0.146983191
  0.101999998      0.162089959
  0.112999998      0.176942185
  0.123999998      0.191379860
  0.135000005      0.204559252
  0.145999998      0.215779945
  0.157000005      0.224848643
  0.167999998      0.231062561
  0.179000005      0.233353391
  0.189999998      0.231291741
  0.201000005      0.224523306
  0.211999997      0.212103844
  0.223000005      0.193447545
  0.233999997      0.168589994
  0.245000005      0.137169525
  0.256000012       9.87203047E-02
  0.266999990       5.36180250E-02
  0.277999997       2.39869975E-03
  0.289000005      -5.48063703E-02
  0.300000012     -0.117320910
  0.310999990     -0.183863699
  0.321999997     -0.253542781
  0.333000004     -0.325438291
  0.344000012     -0.397876829
  0.354999989     -0.469296038
  0.365999997     -0.538634956
  0.377000004     -0.604402423
  0.388000011     -0.664879203
  0.398999989     -0.719024003
  0.409999996     -0.765905261
  0.421000004     -0.804207623
  0.432000011     -0.833120883
  0.442999989     -0.852401137
  0.453999996     -0.861482143
  0.465000004     -0.859870255
  0.476000011     -0.847793698
  0.486999989     -0.825436711
  0.497999996     -0.792604387
  0.509000003     -0.749562800
  0.519999981     -0.696894109
  0.531000018     -0.634657621
  0.541999996     -0.562845409
  0.552999973     -0.481973827
  0.564000010     -0.392385989
  0.574999988     -0.293977916
  0.586000025     -0.187029630
  0.597000003      -7.22370595E-02
  0.607999980       4.99949902E-02
  0.619000018      0.179197311
  0.629999995      0.314173877
  0.640999973      0.453445137
  0.652000010      0.595586479
  0.662999988      0.738617957
  0.674000025      0.879895091
  0.685000002       1.01670074
  0.695999980       1.14614356
  0.707000017       1.26483715
  0.717999995       1.36933696
  0.728999972       1.45641422
  0.740000010       1.52282262
  0.750999987       1.56557477
  0.762000024       1.58236527
  0.773000002       1.57135451
  0.783999979       1.53123093
  0.795000017       1.46178555
  0.805999994       1.36379170
  0.816999972       1.23857939
  0.828000009       1.08842540
  0.838999987      0.916800857
  0.850000024      0.727741063
  0.861000001      0.525608242
  0.871999979      0.315501332
  0.883000016      0.102995694
  0.893999994     -0.106607668
  0.904999971     -0.308255225
  0.916000009     -0.496855855
  0.926999986     -0.667831540
  0.938000023     -0.817624092
  0.949000001     -0.943339646
  0.959999979      -1.04264653
  0.971000016      -1.11434424
  0.981999993      -1.15835285
  0.992999971      -1.17517388
   1.00399995      -1.16603923
   1.01499999      -1.13320982
   1.02600002      -1.07947254
   1.03699994      -1.00776815
   1.04799998     -0.921493888
   1.05900002     -0.824381232
   1.07000005     -0.719933569
   1.08099997     -0.611473501
   1.09200001     -0.502338290
   1.10300004     -0.395479769
   1.11399996     -0.293244094
   1.12500000     -0.197698548
   1.13600004     -0.110598482
   1.14699996      -3.30186225E-02
   1.15799999       3.44668068E-02
   1.16900003       9.14293006E-02
   1.17999995      0.137826905
   1.19099998      0.174183473
   1.20200002      0.201151222
   1.21300006      0.219360784
   1.22399998      0.229796380
   1.23500001      0.233653724
   1.24600005      0.231878191
   1.25699997      0.225402310
   1.26800001      0.215396821
   1.27900004      0.202813372
   1.28999996      0.188303068
   1.30100000      0.172679245
   1.31200004      0.156708181
   1.32299995      0.140728369
   1.33399999      0.125081897
   1.34500003      0.110281326
   1.35599995       9.64791328E-02
   1.36699998       8.35958645E-02
   1.37800002       7.18477890E-02
   1.38900006       6.14012480E-02
