 -0.959999979       0.00000000
 -0.925000012       2.04761045E-06
 -0.889999986       1.70045296E-05
 -0.855000019       5.45860858E-05
 -0.819999993       8.80491207E-05
 -0.785000026       6.90112211E-05
 -0.750000000       1.54938287E-04
 -0.714999974       6.52922725E-04
 -0.680000007       1.37077807E-03
 -0.644999981       1.82641414E-03
 -0.610000014       2.47582723E-03
 -0.574999988       4.17046854E-03
 -0.540000021       6.29513990E-03
 -0.504999995       7.50284083E-03
 -0.469999999       7.50870211E-03
 -0.435000002       5.91384433E-03
 -0.400000006       1.17748941E-03
 -0.365000010      -7.28907203E-03
 -0.330000013      -1.84434205E-02
 -0.294999987      -3.11620086E-02
 -0.259999990      -4.31243628E-02
 -0.224999994      -4.96002100E-02
 -0.189999998      -4.66746427E-02
 -0.155000001      -3.28554139E-02
 -0.119999997      -5.05000725E-03
  -8.50000009E-02   4.37542573E-02
  -5.00000007E-02  0.122453772
  -1.49999997E-02  0.239261746
   1.99999996E-02  0.392919481
   5.49999997E-02  0.551467240
   9.00000036E-02  0.629848003
  0.125000000      0.484200805
  0.159999996      -6.62103966E-02
  0.194999993      -1.18081558
  0.230000004      -2.90542412
  0.264999986      -5.07617617
  0.300000012      -7.26605177
  0.335000008      -8.81077957
  0.370000005      -8.93235111
  0.405000001      -6.94860268
  0.439999998      -2.51536798
  0.474999994       4.17386293
  0.509999990       12.2950964
  0.545000017       20.4537106
  0.579999983       26.9129601
  0.615000010       29.9551697
  0.649999976       28.2949123
  0.685000002       21.4527302
  0.720000029       9.99280453
  0.754999995      -4.46760988
  0.790000021      -19.5183239
  0.824999988      -32.4377365
  0.860000014      -40.7835770
  0.894999981      -42.9537582
  0.930000007      -38.5662231
  0.964999974      -28.5366478
   1.00000000      -14.8331308
   1.03499997       3.75530822E-03
   1.07000005       13.4312296
   1.10500002       23.4206314
   1.13999999       28.7984219
   1.17499995       29.3492146
   1.21000004       25.7034016
   1.24500000       19.0910702
   1.27999997       11.0413589
   1.31500006       3.07962894
   1.35000002      -3.53691673
   1.38499999      -8.00824070
   1.41999996      -10.0758333
   1.45500004      -9.98663616
   1.49000001      -8.34400558
   1.52499998      -5.88956261
   1.55999994      -3.29368973
   1.59500003      -1.03171194
   1.63000000      0.627524614
