 -0.959999979       0.00000000
 -0.925000012       6.17657048E-29
 -0.889999986       1.23531410E-28
 -0.855000019       1.23531410E-28
 -0.819999993       2.72638704E-12
 -0.785000026       7.58217274E-12
 -0.750000000      -1.75072890E-11
 -0.714999974      -2.84313045E-10
 -0.680000007       8.27515834E-10
 -0.644999981       5.50026968E-10
 -0.610000014      -1.19863353E-09
 -0.574999988       7.54828644E-10
 -0.540000021       2.57318322E-09
 -0.504999995      -1.21112687E-09
 -0.469999999       4.44505266E-10
 -0.435000002      -6.83579193E-09
 -0.400000006       8.82874573E-09
 -0.365000010      -1.83659878E-08
 -0.330000013      -5.54231541E-08
 -0.294999987       3.95981701E-08
 -0.259999990       1.30685052E-07
 -0.224999994      -2.35685658E-08
 -0.189999998      -3.82483201E-08
 -0.155000001       2.17282086E-08
 -0.119999997      -1.91510978E-07
  -8.50000009E-02  -2.35256739E-08
  -5.00000007E-02   4.79313655E-08
  -1.49999997E-02  -1.19772139E-07
   1.99999996E-02   3.95276544E-07
   5.49999997E-02   2.84092010E-07
   9.00000036E-02  -7.93935044E-07
  0.125000000      -6.81272283E-08
  0.159999996       6.94295579E-07
  0.194999993      -2.51796877E-07
  0.230000004       3.38068986E-07
  0.264999986       5.39948076E-07
  0.300000012      -1.49909658E-06
  0.335000008      -7.33491788E-07
  0.370000005       1.23040843E-06
  0.405000001      -6.26176075E-07
  0.439999998      -5.68497342E-07
  0.474999994       2.24393830E-06
  0.509999990       2.60351186E-07
  0.545000017      -1.64231676E-06
  0.579999983       6.23597259E-07
  0.615000010       7.47176685E-08
  0.649999976      -1.32422554E-06
  0.685000002       7.82214499E-07
  0.720000029       7.32644935E-07
  0.754999995      -1.16432841E-06
  0.790000021       2.75836186E-07
  0.824999988       1.11217605E-06
  0.860000014      -3.54547922E-07
  0.894999981      -1.72364608E-07
  0.930000007       4.66174015E-08
  0.964999974      -9.07243134E-07
   1.00000000       6.37102573E-07
   1.03499997       1.65299696E-06
   1.07000005      -9.13813551E-07
   1.10500002      -6.01040028E-07
   1.13999999       1.39827671E-06
   1.17499995      -8.41690451E-07
   1.21000004      -1.76901722E-06
   1.24500000       6.32607623E-07
   1.27999997       2.41846809E-08
   1.31500006      -1.11754650E-06
   1.35000002       9.35977255E-07
   1.38499999       9.36527101E-07
   1.41999996      -8.78282094E-07
   1.45500004       1.55486021E-07
   1.49000001       7.63148194E-07
   1.52499998      -6.27422651E-07
   1.55999994      -2.15919570E-07
   1.59500003       8.54760515E-07
   1.63000000       7.20574036E-08
