 -0.959999979       0.00000000
 -0.925000012       0.00000000
 -0.889999986       2.10871644E-06
 -0.855000019       1.11904610E-05
 -0.819999993       2.43259055E-05
 -0.785000026       4.45783735E-05
 -0.750000000       1.03243372E-04
 -0.714999974       2.35472777E-04
 -0.680000007       4.76669549E-04
 -0.644999981       9.22692940E-04
 -0.610000014       1.73509447E-03
 -0.574999988       3.09201144E-03
 -0.540000021       5.21338824E-03
 -0.504999995       8.36583320E-03
 -0.469999999       1.27158239E-02
 -0.435000002       1.81842037E-02
 -0.400000006       2.43809186E-02
 -0.365000010       3.04740444E-02
 -0.330000013       3.50995809E-02
 -0.294999987       3.65796909E-02
 -0.259999990       3.33733447E-02
 -0.224999994       2.45919377E-02
 -0.189999998       1.06028980E-02
 -0.155000001      -6.55249879E-03
 -0.119999997      -2.34623086E-02
  -8.50000009E-02  -3.64314914E-02
  -5.00000007E-02  -4.30302732E-02
  -1.49999997E-02  -4.38159369E-02
   1.99999996E-02  -4.35548164E-02
   5.49999997E-02  -5.08762337E-02
   9.00000036E-02  -7.59428814E-02
  0.125000000     -0.126682565
  0.159999996     -0.204482198
  0.194999993     -0.300738841
  0.230000004     -0.396193027
  0.264999986     -0.464166075
  0.300000012     -0.477140486
  0.335000008     -0.415015042
  0.370000005     -0.272617638
  0.405000001      -6.35289475E-02
  0.439999998      0.181756958
  0.474999994      0.422993630
  0.509999990      0.620400429
  0.545000017      0.744634211
  0.579999983      0.782989740
  0.615000010      0.739811063
  0.649999976      0.631890476
  0.685000002      0.481547266
  0.720000029      0.310411543
  0.754999995      0.136219606
  0.790000021      -2.69514117E-02
  0.824999988     -0.166867435
  0.860000014     -0.272223502
  0.894999981     -0.333837092
  0.930000007     -0.347571820
  0.964999974     -0.317374289
   1.00000000     -0.256103009
   1.03499997     -0.182674721
   1.07000005     -0.116272978
   1.10500002      -7.00961202E-02
   1.13999999      -4.73789871E-02
   1.17499995      -4.15732078E-02
   1.21000004      -4.07760143E-02
   1.24500000      -3.42680551E-02
   1.27999997      -1.78768802E-02
   1.31500006       4.36630333E-03
   1.35000002       2.29309797E-02
   1.38499999       2.84255613E-02
   1.41999996       1.71570983E-02
   1.45500004      -6.42290805E-03
   1.49000001      -3.15801129E-02
   1.52499998      -4.63517867E-02
   1.55999994      -4.32921872E-02
   1.59500003      -2.31034495E-02
   1.63000000       5.76473074E-03
