 -0.959999979       0.00000000
 -0.925000012       0.00000000
 -0.889999986      -7.97562861E-23
 -0.855000019       1.73957257E-14
 -0.819999993       8.79843954E-15
 -0.785000026      -2.03652375E-13
 -0.750000000      -1.71176956E-13
 -0.714999974      -1.25159529E-12
 -0.680000007       1.39221469E-12
 -0.644999981      -5.61603845E-12
 -0.610000014      -5.07884837E-12
 -0.574999988      -1.10885702E-11
 -0.540000021      -1.93148587E-11
 -0.504999995      -1.29755017E-11
 -0.469999999      -6.96354736E-12
 -0.435000002       1.25895863E-10
 -0.400000006      -3.55522556E-10
 -0.365000010      -6.62895516E-10
 -0.330000013       8.36917591E-10
 -0.294999987       1.15637389E-09
 -0.259999990       9.99214156E-10
 -0.224999994      -3.60112690E-10
 -0.189999998       1.97683647E-09
 -0.155000001      -5.80372972E-11
 -0.119999997      -4.23274926E-09
  -8.50000009E-02  -2.21000954E-10
  -5.00000007E-02  -1.25575317E-09
  -1.49999997E-02  -4.00945899E-09
   1.99999996E-02  -1.87537474E-09
   5.49999997E-02  -3.50928264E-09
   9.00000036E-02  -3.79844423E-09
  0.125000000      -1.98127781E-09
  0.159999996       4.36274572E-09
  0.194999993       1.68732761E-08
  0.230000004       1.51965587E-08
  0.264999986      -2.30839525E-09
  0.300000012      -7.74929543E-09
  0.335000008      -1.09492093E-09
  0.370000005      -7.85622412E-09
  0.405000001      -1.73983317E-08
  0.439999998      -1.38598262E-08
  0.474999994      -9.58517798E-09
  0.509999990      -1.38067646E-08
  0.545000017       8.18177259E-09
  0.579999983       3.18103410E-08
  0.615000010       3.25851310E-08
  0.649999976       2.90321633E-08
  0.685000002       2.00810515E-08
  0.720000029       2.45121923E-09
  0.754999995      -3.22531903E-08
  0.790000021      -4.79849653E-08
  0.824999988       3.44216405E-10
  0.860000014      -1.32329339E-08
  0.894999981      -6.61791049E-08
  0.930000007      -2.67957656E-08
  0.964999974       4.89619296E-08
   1.00000000       1.74065935E-08
   1.03499997      -3.84230354E-08
   1.07000005       9.86657689E-09
   1.10500002       2.77077241E-08
   1.13999999      -4.43813128E-08
   1.17499995      -4.59908591E-08
   1.21000004       1.13872476E-08
   1.24500000      -1.06004272E-08
   1.27999997      -5.16998959E-08
   1.31500006      -4.26170849E-10
   1.35000002       4.29435048E-08
   1.38499999      -5.88929394E-09
   1.41999996      -3.51461011E-08
   1.45500004       1.43701433E-08
   1.49000001       3.68990953E-08
   1.52499998      -7.12986381E-09
   1.55999994      -1.30125803E-08
   1.59500003       3.99217939E-08
   1.63000000       4.87388050E-08
