 -0.800000012       0.00000000
 -0.788999975       0.00000000
 -0.777999997       0.00000000
 -0.767000020       0.00000000
 -0.755999982       0.00000000
 -0.745000005      -7.27196623E-14
 -0.734000027      -1.59100977E-12
 -0.722999990       1.20139888E-11
 -0.712000012      -3.03572514E-11
 -0.700999975      -4.43463061E-12
 -0.689999998       1.71164902E-10
 -0.679000020      -2.42435488E-10
 -0.667999983      -3.38807760E-10
 -0.657000005       1.16123322E-09
 -0.646000028      -8.38455555E-11
 -0.634999990      -2.98083602E-09
 -0.624000013       2.29965469E-09
 -0.612999976       4.84671014E-09
 -0.601999998      -7.01557568E-09
 -0.591000021      -4.04980893E-09
 -0.579999983       1.19581482E-08
 -0.569000006      -3.95869648E-09
 -0.558000028      -9.75222125E-09
 -0.546999991       2.43877540E-08
 -0.536000013      -9.52032231E-09
 -0.524999976      -5.96991114E-08
 -0.513999999       4.74520903E-08
 -0.503000021       1.00073116E-07
 -0.492000014      -8.56605311E-08
 -0.481000006      -1.08214721E-07
 -0.469999999       9.61603348E-08
 -0.458999991       2.18258602E-08
 -0.448000014      -8.34217602E-08
 -0.437000006       1.83430089E-07
 -0.425999999       9.89260869E-08
 -0.414999992      -3.95121020E-07
 -0.404000014      -1.41934876E-07
 -0.393000007       3.99927160E-07
 -0.381999999       4.62802490E-08
 -0.370999992      -1.58002450E-07
 -0.360000014       3.18180270E-07
 -0.349000007      -9.66202904E-08
 -0.338000000      -6.86190674E-07
 -0.326999992       3.38985444E-07
 -0.316000015       8.33655236E-07
 -0.305000007      -6.70941290E-07
 -0.294000000      -1.09397683E-06
 -0.282999992      -6.30397352E-08
 -0.272000015      -7.01580348E-07
 -0.261000007      -1.67863664E-06
 -0.250000000      -7.67512518E-07
 -0.238999993      -1.08775055E-06
 -0.228000000      -3.54284839E-06
 -0.216999993      -4.22416770E-06
 -0.206000000      -3.80073357E-06
 -0.194999993      -5.75116019E-06
 -0.184000000      -8.43892940E-06
 -0.172999993      -1.04618621E-05
 -0.162000000      -1.42166864E-05
 -0.150999993      -1.91340459E-05
 -0.140000001      -2.36423566E-05
 -0.128999993      -3.05177273E-05
 -0.118000001      -4.04835191E-05
 -0.107000001      -5.07288642E-05
  -9.60000008E-02  -6.30488430E-05
  -8.50000009E-02  -8.05451127E-05
  -7.40000010E-02  -1.00803125E-04
  -6.30000010E-02  -1.22748155E-04
  -5.20000011E-02  -1.49771775E-04
  -4.10000011E-02  -1.81903932E-04
  -2.99999993E-02  -2.17111941E-04
  -1.89999994E-02  -2.57314299E-04
  -8.00000038E-03  -3.03397013E-04
   3.00000003E-03  -3.52143717E-04
   1.40000004E-02  -4.02410486E-04
   2.50000004E-02  -4.55164176E-04
   3.59999985E-02  -5.08042751E-04
   4.69999984E-02  -5.56602725E-04
   5.79999983E-02  -5.97449718E-04
   6.89999983E-02  -6.26755122E-04
   7.99999982E-02  -6.38328260E-04
   9.09999982E-02  -6.23715983E-04
  0.101999998      -5.73941972E-04
  0.112999998      -4.80557763E-04
  0.123999998      -3.32999363E-04
  0.135000005      -1.17899021E-04
  0.145999998       1.76689515E-04
  0.157000005       5.61823777E-04
  0.167999998       1.05152349E-03
  0.179000005       1.65860623E-03
  0.189999998       2.39059865E-03
  0.201000005       3.25437239E-03
  0.211999997       4.25599469E-03
  0.223000005       5.39349392E-03
  0.233999997       6.65717339E-03
  0.245000005       8.03267490E-03
  0.256000012       9.49631073E-03
  0.266999990       1.10121490E-02
  0.277999997       1.25337821E-02
  0.289000005       1.40017029E-02
  0.300000012       1.53412297E-02
  0.310999990       1.64655149E-02
  0.321999997       1.72743648E-02
  0.333000004       1.76511705E-02
  0.344000012       1.74668860E-02
  0.354999989       1.65834278E-02
  0.365999997       1.48525303E-02
  0.377000004       1.21201677E-02
  0.388000011       8.23402684E-03
  0.398999989       3.04478360E-03
  0.409999996      -3.59090581E-03
  0.421000004      -1.17991259E-02
  0.432000011      -2.16795076E-02
  0.442999989      -3.33022065E-02
  0.453999996      -4.67016622E-02
  0.465000004      -6.18655942E-02
  0.476000011      -7.87270144E-02
  0.486999989      -9.71597880E-02
  0.497999996     -0.116972432
  0.509000003     -0.137901515
  0.519999981     -0.159610763
  0.531000018     -0.181692868
  0.541999996     -0.203669444
  0.552999973     -0.224994481
  0.564000010     -0.245065257
  0.574999988     -0.263234317
  0.586000025     -0.278822601
  0.597000003     -0.291138709
  0.607999980     -0.299499571
  0.619000018     -0.303251326
  0.629999995     -0.301795095
  0.640999973     -0.294615954
  0.652000010     -0.281305581
  0.662999988     -0.261583984
  0.674000025     -0.235324532
  0.685000002     -0.202571645
  0.695999980     -0.163550615
  0.707000017     -0.118677437
  0.717999995      -6.85625076E-02
  0.728999972      -1.40009606E-02
  0.740000010       4.40421179E-02
  0.750999987      0.104449488
  0.762000024      0.165980607
  0.773000002      0.227308020
  0.783999979      0.287054300
  0.795000017      0.343833506
  0.805999994      0.396298021
  0.816999972      0.443182737
  0.828000009      0.483347028
  0.838999987      0.515815735
  0.850000024      0.539812744
  0.861000001      0.554784179
  0.871999979      0.560419261
  0.883000016      0.556663156
  0.893999994      0.543713629
  0.904999971      0.522008657
  0.916000009      0.492211640
  0.926999986      0.455188811
  0.938000023      0.411972404
  0.949000001      0.363720238
  0.959999979      0.311678171
  0.971000016      0.257137507
  0.981999993      0.201388821
  0.992999971      0.145682275
   1.00399995       9.11946222E-02
   1.01499999       3.89953107E-02
   1.02600002      -9.98350140E-03
   1.03699994      -5.49634993E-02
   1.04799998      -9.53286588E-02
   1.05900002     -0.130633771
   1.07000005     -0.160607398
   1.08099997     -0.185141712
   1.09200001     -0.204276070
   1.10300004     -0.218182847
   1.11399996     -0.227151155
   1.12500000     -0.231564000
   1.13600004     -0.231874079
   1.14699996     -0.228582501
   1.15799999     -0.222218841
   1.16900003     -0.213320836
   1.17999995     -0.202416152
   1.19099998     -0.190007523
   1.20200002     -0.176562279
   1.21300006     -0.162505001
   1.22399998     -0.148210198
   1.23500001     -0.133997500
   1.24600005     -0.120132670
   1.25699997     -0.106829673
   1.26800001      -9.42509249E-02
   1.27900004      -8.25112909E-02
   1.28999996      -7.16860294E-02
   1.30100000      -6.18150756E-02
   1.31200004      -5.29062785E-02
   1.32299995      -4.49437760E-02
   1.33399999      -3.78950275E-02
   1.34500003      -3.17119807E-02
   1.35599995      -2.63341703E-02
   1.36699998      -2.16957331E-02
   1.37800002      -1.77289732E-02
   1.38900006      -1.43653341E-02
