 -0.959999979       0.00000000
 -0.925000012       0.00000000
 -0.889999986      -3.26729305E-24
 -0.855000019      -6.42744435E-09
 -0.819999993      -1.02968059E-07
 -0.785000026      -2.40418444E-07
 -0.750000000      -2.50850974E-07
 -0.714999974      -4.90145453E-07
 -0.680000007      -1.62888455E-06
 -0.644999981      -3.63728509E-06
 -0.610000014      -6.36295863E-06
 -0.574999988      -1.08771846E-05
 -0.540000021      -1.89035090E-05
 -0.504999995      -3.17295344E-05
 -0.469999999      -5.02779367E-05
 -0.435000002      -7.46417136E-05
 -0.400000006      -1.03530656E-04
 -0.365000010      -1.35426846E-04
 -0.330000013      -1.69156905E-04
 -0.294999987      -2.03676173E-04
 -0.259999990      -2.42661117E-04
 -0.224999994      -3.04884394E-04
 -0.189999998      -4.35724971E-04
 -0.155000001      -7.20550073E-04
 -0.119999997      -1.30208279E-03
  -8.50000009E-02  -2.39459146E-03
  -5.00000007E-02  -4.28379141E-03
  -1.49999997E-02  -7.30204117E-03
   1.99999996E-02  -1.17639191E-02
   5.49999997E-02  -1.78512689E-02
   9.00000036E-02  -2.54581999E-02
  0.125000000      -3.40298638E-02
  0.159999996      -4.24503982E-02
  0.194999993      -4.90534939E-02
  0.230000004      -5.18142097E-02
  0.264999986      -4.87213060E-02
  0.300000012      -3.82611305E-02
  0.335000008      -1.98932532E-02
  0.370000005       5.62874693E-03
  0.405000001       3.62085663E-02
  0.439999998       6.86536655E-02
  0.474999994       9.91434008E-02
  0.509999990      0.123797685
  0.545000017      0.139223367
  0.579999983      0.142951429
  0.615000010      0.133742243
  0.649999976      0.111774072
  0.685000002       7.87135214E-02
  0.720000029       3.76349427E-02
  0.754999995      -7.25230714E-03
  0.790000021      -5.10918759E-02
  0.824999988      -8.90515819E-02
  0.860000014     -0.117061794
  0.894999981     -0.132451668
  0.930000007     -0.134327754
  0.964999974     -0.123605609
   1.00000000     -0.102703579
   1.03499997      -7.50108510E-02
   1.07000005      -4.42923084E-02
   1.10500002      -1.41671021E-02
   1.13999999       1.22721791E-02
   1.17499995       3.27054821E-02
   1.21000004       4.57442440E-02
   1.24500000       5.10331318E-02
   1.27999997       4.92637195E-02
   1.31500006       4.20324877E-02
   1.35000002       3.15071754E-02
   1.38499999       1.99505277E-02
   1.41999996       9.24075302E-03
   1.45500004       5.61666326E-04
   1.49000001      -5.63147105E-03
   1.52499998      -9.40492842E-03
   1.55999994      -1.10549880E-02
   1.59500003      -1.09098107E-02
   1.63000000      -9.31024551E-03
