 -0.800000012       0.00000000
 -0.788999975       0.00000000
 -0.777999997       9.92434369E-37
 -0.767000020       1.87312646E-14
 -0.755999982      -1.00533744E-13
 -0.745000005       3.74141263E-14
 -0.734000027       2.77294734E-13
 -0.722999990      -5.79615132E-13
 -0.712000012      -8.89333691E-13
 -0.700999975       3.61926797E-13
 -0.689999998       3.39182648E-13
 -0.679000020      -3.52451922E-12
 -0.667999983       1.92791204E-12
 -0.657000005       2.78949537E-11
 -0.646000028      -1.20080291E-11
 -0.634999990      -7.89701221E-11
 -0.624000013       2.96334970E-11
 -0.612999976       1.56312768E-10
 -0.601999998      -4.38660185E-11
 -0.591000021      -2.92103924E-10
 -0.579999983      -6.25430176E-12
 -0.569000006       4.76250983E-10
 -0.558000028       2.40197195E-10
 -0.546999991      -6.41512898E-10
 -0.536000013      -7.19501403E-10
 -0.524999976       6.27514374E-10
 -0.513999999       1.11866749E-09
 -0.503000021      -4.17960500E-10
 -0.492000014      -8.08841272E-10
 -0.481000006      -1.27040357E-11
 -0.469999999      -2.24330415E-10
 -0.458999991       1.07269760E-09
 -0.448000014       1.20407606E-09
 -0.437000006      -3.20153548E-09
 -0.425999999      -1.78114457E-09
 -0.414999992       5.15810017E-09
 -0.404000014       2.59176614E-09
 -0.393000007      -2.44363729E-09
 -0.381999999      -4.26879554E-09
 -0.370999992      -3.11971982E-09
 -0.360000014       8.00505706E-09
 -0.349000007      -3.28342065E-09
 -0.338000000      -1.98876595E-08
 -0.326999992       2.31015989E-08
 -0.316000015       3.70436126E-08
 -0.305000007      -3.34612622E-08
 -0.294000000      -3.56548000E-08
 -0.282999992       2.65240860E-08
 -0.272000015       1.05590070E-08
 -0.261000007      -2.91909341E-08
 -0.250000000      -2.47445779E-08
 -0.238999993      -3.50530871E-09
 -0.228000000       6.09928179E-08
 -0.216999993       1.75763319E-07
 -0.206000000       1.12791170E-07
 -0.194999993      -3.31641559E-07
 -0.184000000      -6.17520641E-07
 -0.172999993       4.55560105E-08
 -0.162000000       1.00944351E-06
 -0.150999993       6.59279294E-07
 -0.140000001      -7.51113873E-07
 -0.128999993      -1.10192479E-06
 -0.118000001       8.76208333E-08
 -0.107000001       9.78036610E-07
  -9.60000008E-02   3.91857412E-07
  -8.50000009E-02  -8.07760898E-07
  -7.40000010E-02  -8.98573830E-07
  -6.30000010E-02   7.16542502E-07
  -5.20000011E-02   1.86902059E-06
  -4.10000011E-02   6.51963390E-08
  -2.99999993E-02  -2.74236731E-06
  -1.89999994E-02  -1.69324335E-06
  -8.00000038E-03   2.78063681E-06
   3.00000003E-03   3.87399768E-06
   1.40000004E-02  -7.53345716E-07
   2.50000004E-02  -4.26425959E-06
   3.59999985E-02  -1.92469929E-06
   4.69999984E-02   1.77580432E-06
   5.79999983E-02   2.28242016E-06
   6.89999983E-02   6.72396368E-07
   7.99999982E-02  -9.94592938E-07
   9.09999982E-02  -1.17797163E-06
  0.101999998       5.81771587E-07
  0.112999998       1.27613828E-06
  0.123999998       1.01953539E-07
  0.135000005       1.74826638E-07
  0.145999998      -4.20126923E-07
  0.157000005      -3.08075914E-06
  0.167999998      -1.65038284E-06
  0.179000005       3.59147384E-06
  0.189999998       2.55171653E-06
  0.201000005      -3.61882644E-06
  0.211999997      -2.64659866E-06
  0.223000005       2.88201841E-06
  0.233999997       2.23341021E-06
  0.245000005      -9.58490773E-07
  0.256000012      -1.76495530E-06
  0.266999990      -1.48826143E-06
  0.277999997       3.56214542E-08
  0.289000005       3.21268431E-06
  0.300000012       4.16053535E-06
  0.310999990      -2.46313175E-06
  0.321999997      -8.43155976E-06
  0.333000004      -1.25214933E-06
  0.344000012       1.06743064E-05
  0.354999989       7.20762046E-06
  0.365999997      -7.36257061E-06
  0.377000004      -9.23915650E-06
  0.388000011       3.13612099E-06
  0.398999989       8.66548362E-06
  0.409999996      -1.89400325E-07
  0.421000004      -8.69432643E-06
  0.432000011      -3.57074532E-06
  0.442999989       8.15130079E-06
  0.453999996       5.26576196E-06
  0.465000004      -1.02191079E-05
  0.476000011      -9.61611568E-06
  0.486999989       8.29432975E-06
  0.497999996       1.67394537E-05
  0.509000003       3.58941270E-06
  0.519999981      -1.41902910E-05
  0.531000018      -1.50835976E-05
  0.541999996      -2.15127648E-06
  0.552999973       9.86337000E-06
  0.564000010       1.24960279E-05
  0.574999988       6.95632252E-06
  0.586000025      -3.54451095E-06
  0.597000003      -1.28962247E-05
  0.607999980      -8.61192166E-06
  0.619000018       5.53646441E-06
  0.629999995       1.02749918E-05
  0.640999973       1.76924357E-06
  0.652000010      -4.89020658E-06
  0.662999988      -4.17773663E-06
  0.674000025      -2.51766551E-06
  0.685000002       1.92185735E-06
  0.695999980       8.27182521E-06
  0.707000017       3.83469842E-06
  0.717999995      -8.97462451E-06
  0.728999972      -1.11526924E-05
  0.740000010       1.50365611E-06
  0.750999987       1.34442325E-05
  0.762000024       9.93885078E-06
  0.773000002      -3.96748783E-06
  0.783999979      -1.13651577E-05
  0.795000017      -4.16359444E-06
  0.805999994       8.06676144E-06
  0.816999972       8.81774304E-06
  0.828000009      -4.76797868E-06
  0.838999987      -1.51160157E-05
  0.850000024      -6.24483800E-06
  0.861000001       1.01672013E-05
  0.871999979       1.28945776E-05
  0.883000016       3.95764209E-06
  0.893999994      -3.64516200E-06
  0.904999971      -8.53392976E-06
  0.916000009      -6.92889034E-06
  0.926999986       4.09804034E-06
  0.938000023       5.66311519E-06
  0.949000001      -9.78204480E-06
  0.959999979      -1.24386133E-05
  0.971000016       9.92630248E-06
  0.981999993       2.31860431E-05
  0.992999971       8.33171089E-06
   1.00399995      -1.13655160E-05
   1.01499999      -1.76552167E-05
   1.02600002      -1.27739622E-05
   1.03699994       1.51141660E-06
   1.04799998       1.66379250E-05
   1.05900002       1.51729328E-05
   1.07000005      -1.30631054E-06
   1.08099997      -1.11043846E-05
   1.09200001      -4.84230350E-06
   1.10300004       4.46652166E-06
   1.11399996       3.67874418E-06
   1.12500000      -2.89025502E-06
   1.13600004      -3.98060729E-06
   1.14699996      -4.97073529E-07
   1.15799999       7.69119481E-07
   1.16900003       2.01734201E-06
   1.17999995       4.77140929E-06
   1.19099998       3.04105333E-06
   1.20200002      -1.97587792E-06
   1.21300006      -3.69559075E-06
   1.22399998      -3.33130015E-06
   1.23500001      -1.01438673E-06
   1.24600005       5.40708970E-06
   1.25699997       6.49095682E-06
   1.26800001      -3.49823836E-06
   1.27900004      -1.04895162E-05
   1.28999996      -5.11986900E-06
   1.30100000       4.14362830E-06
   1.31200004       9.38776975E-06
   1.32299995       6.09570679E-06
   1.33399999      -6.52932613E-06
   1.34500003      -1.26099103E-05
   1.35599995       6.05518721E-07
   1.36699998       1.47671735E-05
   1.37800002       8.27707299E-06
   1.38900006      -8.67036488E-06
