 -0.800000012       0.00000000
 -0.788999975       0.00000000
 -0.777999997       0.00000000
 -0.767000020       1.57443245E-22
 -0.755999982      -1.02201460E-16
 -0.745000005       1.10176858E-15
 -0.734000027      -3.27174540E-14
 -0.722999990       1.30836097E-13
 -0.712000012       1.66635721E-13
 -0.700999975      -2.08962166E-12
 -0.689999998       3.90437379E-12
 -0.679000020       3.77895241E-12
 -0.667999983      -2.89351286E-11
 -0.657000005       4.35516657E-11
 -0.646000028       4.56203235E-11
 -0.634999990      -2.03004280E-10
 -0.624000013       5.82497245E-11
 -0.612999976       4.22613611E-10
 -0.601999998      -3.76599141E-10
 -0.591000021      -4.27876234E-10
 -0.579999983       7.34276251E-10
 -0.569000006      -9.28377375E-11
 -0.558000028      -7.15997484E-10
 -0.546999991       1.29135658E-09
 -0.536000013      -1.81948123E-10
 -0.524999976      -2.77743739E-09
 -0.513999999       2.13196838E-09
 -0.503000021       2.69921752E-09
 -0.492000014      -3.05956660E-09
 -0.481000006       6.70089539E-10
 -0.469999999      -3.31474848E-09
 -0.458999991      -3.56254604E-09
 -0.448000014       2.26397461E-08
 -0.437000006      -1.87147209E-09
 -0.425999999      -5.50579138E-08
 -0.414999992       2.78646866E-08
 -0.404000014       8.73421442E-08
 -0.393000007      -9.01245087E-08
 -0.381999999      -8.35767722E-08
 -0.370999992       1.84431130E-07
 -0.360000014       3.89790467E-09
 -0.349000007      -2.55295532E-07
 -0.338000000       1.38188810E-07
 -0.326999992       2.32109429E-07
 -0.316000015      -2.57465899E-07
 -0.305000007      -1.13683065E-07
 -0.294000000       2.56783238E-07
 -0.282999992       9.11389453E-09
 -0.272000015      -1.12313430E-07
 -0.261000007      -1.73787939E-07
 -0.250000000      -1.12964642E-08
 -0.238999993       9.70567271E-07
 -0.228000000      -1.60297901E-07
 -0.216999993      -2.56492604E-06
 -0.206000000       5.63547189E-07
 -0.194999993       4.39831410E-06
 -0.184000000      -7.09569406E-07
 -0.172999993      -4.84828342E-06
 -0.162000000      -2.04526938E-08
 -0.150999993       2.39674296E-06
 -0.140000001       1.57551153E-06
 -0.128999993       2.28654176E-06
 -0.118000001      -3.51613539E-06
 -0.107000001      -5.72922272E-06
  -9.60000008E-02   5.57351996E-06
  -8.50000009E-02   6.41703582E-06
  -7.40000010E-02  -8.74017951E-06
  -6.30000010E-02  -7.23408903E-06
  -5.20000011E-02   1.13442748E-05
  -4.10000011E-02   1.30873213E-05
  -2.99999993E-02  -9.85101997E-06
  -1.89999994E-02  -2.17739889E-05
  -8.00000038E-03   3.47476856E-07
   3.00000003E-03   3.26207082E-05
   1.40000004E-02   1.16485353E-05
   2.50000004E-02  -4.25372891E-05
   3.59999985E-02  -2.40829067E-05
   4.69999984E-02   4.69803745E-05
   5.79999983E-02   3.19409555E-05
   6.89999983E-02  -3.35772093E-05
   7.99999982E-02  -2.49908626E-05
   9.09999982E-02   2.10039052E-05
  0.101999998      -6.98325948E-06
  0.112999998      -3.34423748E-05
  0.123999998       2.46371728E-05
  0.135000005       8.65150141E-05
  0.145999998      -1.33715048E-05
  0.157000005      -1.15915056E-04
  0.167999998      -7.25510254E-05
  0.179000005       1.16534669E-04
  0.189999998       1.41110126E-04
  0.201000005      -5.55839033E-05
  0.211999997      -1.04689170E-04
  0.223000005      -3.98701450E-05
  0.233999997      -3.01712334E-05
  0.245000005       9.61534024E-05
  0.256000012       1.31125795E-04
  0.266999990      -3.81120190E-05
  0.277999997      -1.38735661E-04
  0.289000005      -6.89558510E-05
  0.300000012       1.11740301E-05
  0.310999990       2.71420839E-04
  0.321999997       1.41510463E-04
  0.333000004      -4.34075482E-04
  0.344000012      -2.30828664E-04
  0.354999989       4.52856271E-04
  0.365999997       1.88805261E-05
  0.377000004      -3.17238766E-04
  0.388000011       3.51630617E-04
  0.398999989       7.08632215E-05
  0.409999996      -4.58773866E-04
  0.421000004       7.44553254E-05
  0.432000011       3.19334911E-04
  0.442999989      -5.37518790E-05
  0.453999996      -4.11917390E-05
  0.465000004       1.64368088E-04
  0.476000011      -3.39831517E-04
  0.486999989      -2.83162895E-04
  0.497999996       4.86024481E-04
  0.509000003       3.19151790E-04
  0.519999981      -7.44001474E-04
  0.531000018       3.36183177E-04
  0.541999996       4.25173523E-04
  0.552999973      -7.34715897E-04
  0.564000010       1.12103400E-04
  0.574999988       3.25547910E-04
  0.586000025      -2.74992897E-04
  0.597000003       8.38079650E-05
  0.607999980       5.12716884E-04
  0.619000018      -5.25609357E-04
  0.629999995      -3.79439036E-04
  0.640999973       7.68607424E-04
  0.652000010       3.34971264E-05
  0.662999988      -5.18476532E-04
  0.674000025       3.02037864E-04
  0.685000002       2.55617022E-04
  0.695999980      -9.65411658E-04
  0.707000017       6.33410018E-05
  0.717999995       7.02620135E-04
  0.728999972       5.63628237E-05
  0.740000010      -4.89977792E-05
  0.750999987      -6.99717901E-04
  0.762000024      -1.02558042E-04
  0.773000002       1.58321345E-03
  0.783999979       2.05448523E-04
  0.795000017      -1.64677761E-03
  0.805999994      -5.68939780E-04
  0.816999972       1.14816474E-03
  0.828000009       6.00659056E-04
  0.838999987      -1.06221053E-03
  0.850000024       2.87347502E-04
  0.861000001       3.48701637E-04
  0.871999979      -9.33584583E-04
  0.883000016       1.15383256E-04
  0.893999994       1.69171568E-03
  0.904999971      -2.35948377E-04
  0.916000009      -1.87716703E-03
  0.926999986       4.20945726E-04
  0.938000023       1.50116836E-03
  0.949000001      -1.21267012E-03
  0.959999979      -1.06099132E-03
  0.971000016       1.91385450E-03
  0.981999993       5.38887398E-04
  0.992999971      -2.43201666E-03
   1.00399995       3.08963849E-04
   1.01499999       2.29265308E-03
   1.02600002      -9.97580006E-04
   1.03699994      -8.98132275E-04
   1.04799998       1.44604244E-03
   1.05900002      -8.40051973E-04
   1.07000005      -1.52898103E-03
   1.08099997       2.17987224E-03
   1.09200001       9.17971018E-04
   1.10300004      -2.74092541E-03
   1.11399996       3.98566859E-04
   1.12500000       2.40117614E-03
   1.13600004      -1.98726845E-03
   1.14699996      -1.58988126E-03
   1.15799999       2.67071370E-03
   1.16900003       4.54259396E-04
   1.17999995      -2.22654897E-03
   1.19099998       1.09042902E-03
   1.20200002       1.61135790E-03
   1.21300006      -2.39091204E-03
   1.22399998      -1.15618866E-03
   1.23500001       2.35554972E-03
   1.24600005       1.65406746E-04
   1.25699997      -1.41897751E-03
   1.26800001       1.78700674E-03
   1.27900004       8.39172688E-04
   1.28999996      -3.33884475E-03
   1.30100000      -4.45751124E-04
   1.31200004       3.14605492E-03
   1.32299995      -7.35231268E-04
   1.33399999      -2.16857507E-03
   1.34500003       2.32514436E-03
   1.35599995       1.21640798E-03
   1.36699998      -2.92812986E-03
   1.37800002       2.13809792E-04
   1.38900006       2.77823303E-03
