 -0.959999979      -5.57172345E-04
 -0.925000012       2.18295798E-04
 -0.889999986       2.32898929E-05
 -0.855000019      -1.28600898E-03
 -0.819999993      -2.20371969E-03
 -0.785000026      -3.05940141E-03
 -0.750000000      -4.49360395E-03
 -0.714999974      -6.67400379E-03
 -0.680000007      -9.82852280E-03
 -0.644999981      -1.10185221E-02
 -0.610000014      -5.37394825E-03
 -0.574999988       8.28422140E-03
 -0.540000021       3.09538748E-02
 -0.504999995       6.69059008E-02
 -0.469999999      0.113199629
 -0.435000002      0.153736129
 -0.400000006      0.166930884
 -0.365000010      0.125692382
 -0.330000013      -3.63202789E-03
 -0.294999987     -0.236819550
 -0.259999990     -0.544127762
 -0.224999994     -0.855372190
 -0.189999998      -1.08215559
 -0.155000001      -1.14003384
 -0.119999997     -0.994511962
  -8.50000009E-02 -0.724937677
  -5.00000007E-02 -0.545457304
  -1.49999997E-02 -0.747312129
   1.99999996E-02  -1.57850015
   5.49999997E-02  -3.08499169
   9.00000036E-02  -4.95506287
  0.125000000      -6.46070814
  0.159999996      -6.58581448
  0.194999993      -4.34388399
  0.230000004      0.798940063
  0.264999986       8.53555107
  0.300000012       17.5440292
  0.335000008       25.6760235
  0.370000005       30.5074768
  0.405000001       30.0830326
  0.439999998       23.5929432
  0.474999994       11.7217340
  0.509999990      -3.47973275
  0.545000017      -19.1363850
  0.579999983      -32.2788277
  0.615000010      -40.5224380
  0.649999976      -42.5322914
  0.685000002      -38.2008400
  0.720000029      -28.5689487
  0.754999995      -15.5725260
  0.790000021      -1.64993966
  0.824999988       10.7706995
  0.860000014       19.8009949
  0.894999981       24.4698353
  0.930000007       24.8293934
  0.964999974       21.7637405
   1.00000000       16.5796909
   1.03499997       10.5732956
   1.07000005       4.77635765
   1.10500002      -6.78194314E-02
   1.13999999      -3.42985654
   1.17499995      -4.98102045
   1.21000004      -4.69448757
   1.24500000      -2.97900200
   1.27999997     -0.682246268
   1.31500006       1.15482736
   1.35000002       1.73071754
   1.38499999      0.860080183
   1.41999996     -0.958338618
   1.45500004      -2.85081410
   1.49000001      -4.07549906
   1.52499998      -4.40420818
   1.55999994      -4.13197231
   1.59500003      -3.73086715
   1.63000000      -3.41875529
