 -0.800000012       0.00000000
 -0.788999975       0.00000000
 -0.777999997       0.00000000
 -0.767000020      -4.68866634E-28
 -0.755999982      -1.92716377E-25
 -0.745000005      -4.20442298E-18
 -0.734000027       4.94302355E-17
 -0.722999990      -2.01556334E-16
 -0.712000012      -1.41442707E-15
 -0.700999975       4.10114803E-15
 -0.689999998      -3.42397844E-15
 -0.679000020      -2.34925350E-14
 -0.667999983       5.28798976E-14
 -0.657000005       2.73291555E-14
 -0.646000028      -2.49672190E-13
 -0.634999990       1.67832978E-13
 -0.624000013       6.78280620E-13
 -0.612999976      -1.04454954E-12
 -0.601999998      -8.37109082E-13
 -0.591000021       2.72257629E-12
 -0.579999983      -4.28217845E-13
 -0.569000006      -4.46279125E-12
 -0.558000028       4.34320201E-12
 -0.546999991       5.25193951E-12
 -0.536000013      -1.15894646E-11
 -0.524999976      -4.03795357E-12
 -0.513999999       2.14698676E-11
 -0.503000021       4.49312896E-12
 -0.492000014      -3.09014203E-11
 -0.481000006      -1.55575327E-11
 -0.469999999       4.91389082E-11
 -0.458999991       5.18868837E-11
 -0.448000014      -1.02032917E-10
 -0.437000006      -1.09683020E-10
 -0.425999999       2.30158753E-10
 -0.414999992       1.60703492E-10
 -0.404000014      -4.44812132E-10
 -0.393000007      -1.66107267E-10
 -0.381999999       6.83251677E-10
 -0.370999992       1.55527036E-10
 -0.360000014      -7.56907481E-10
 -0.349000007      -2.60983263E-10
 -0.338000000       4.83160956E-10
 -0.326999992       5.81971138E-10
 -0.316000015      -2.14034471E-10
 -0.305000007      -1.09763487E-09
 -0.294000000       1.24389488E-09
 -0.282999992       2.12916573E-09
 -0.272000015      -4.54529658E-09
 -0.261000007      -4.47964110E-09
 -0.250000000       8.03467515E-09
 -0.238999993       7.31012539E-09
 -0.228000000      -7.92647636E-09
 -0.216999993      -8.84516460E-09
 -0.206000000       3.33875350E-09
 -0.194999993       1.27212356E-08
 -0.184000000       7.07993175E-09
 -0.172999993      -2.46861340E-08
 -0.162000000      -2.75553980E-08
 -0.150999993       4.11478176E-08
 -0.140000001       6.06634032E-08
 -0.128999993      -4.04946121E-08
 -0.118000001      -8.82165452E-08
 -0.107000001       8.50643556E-09
  -9.60000008E-02   7.61713821E-08
  -8.50000009E-02   2.72922254E-08
  -7.40000010E-02  -2.01962411E-08
  -6.30000010E-02  -1.95619432E-08
  -5.20000011E-02  -1.54022111E-08
  -4.10000011E-02   1.69632361E-08
  -2.99999993E-02   5.19175352E-08
  -1.89999994E-02  -3.92499402E-08
  -8.00000038E-03  -1.70584286E-07
   3.00000003E-03  -3.12116377E-08
   1.40000004E-02   2.39528333E-07
   2.50000004E-02   1.11337009E-07
   3.59999985E-02  -2.01756023E-07
   4.69999984E-02  -3.73182019E-08
   5.79999983E-02   1.88904437E-07
   6.89999983E-02  -1.81044442E-07
   7.99999982E-02  -3.88513854E-07
   9.09999982E-02   2.54092839E-07
  0.101999998       7.08984714E-07
  0.112999998       1.02302799E-07
  0.123999998      -5.31741080E-07
  0.135000005      -2.48241975E-07
  0.145999998       2.11437921E-07
  0.157000005       1.16838059E-07
  0.167999998       4.15235490E-08
  0.179000005       1.19667206E-07
  0.189999998      -4.11933541E-07
  0.201000005      -6.78213553E-07
  0.211999997       4.98327154E-07
  0.223000005       9.72603061E-07
  0.233999997      -8.97323275E-07
  0.245000005      -1.57250759E-06
  0.256000012       9.24682695E-07
  0.266999990       1.88862612E-06
  0.277999997      -5.82187511E-07
  0.289000005      -1.32240280E-06
  0.300000012       7.33786351E-07
  0.310999990       7.16896693E-07
  0.321999997      -7.87524755E-07
  0.333000004       4.83780354E-07
  0.344000012       1.59354602E-06
  0.354999989      -1.48639367E-06
  0.365999997      -3.18347702E-06
  0.377000004       1.11699990E-06
  0.388000011       3.94908102E-06
  0.398999989      -3.11758072E-07
  0.409999996      -3.88926628E-06
  0.421000004      -5.19273442E-07
  0.432000011       2.72400143E-06
  0.442999989       1.00628618E-07
  0.453999996      -2.07827838E-06
  0.465000004       1.00644877E-06
  0.476000011       3.62645869E-06
  0.486999989      -3.37773542E-07
  0.497999996      -5.36183097E-06
  0.509000003      -1.09285133E-06
  0.519999981       6.19050297E-06
  0.531000018       2.36854612E-06
  0.541999996      -6.36117556E-06
  0.552999973      -3.80801362E-06
  0.564000010       4.71347857E-06
  0.574999988       3.09441907E-06
  0.586000025      -1.54798886E-06
  0.597000003       2.41833027E-06
  0.607999980       3.86783040E-06
  0.619000018      -4.90827324E-06
  0.629999995      -8.22750917E-06
  0.640999973       2.22563972E-06
  0.652000010       8.15000476E-06
  0.662999988      -1.21602739E-06
  0.674000025      -8.81590404E-06
  0.685000002      -2.42397073E-06
  0.695999980       7.01980480E-06
  0.707000017       7.52801816E-06
  0.717999995       2.53199346E-06
  0.728999972      -2.75724915E-06
  0.740000010      -9.60196121E-06
  0.750999987      -1.00849711E-05
  0.762000024       3.08987796E-06
  0.773000002       1.55430280E-05
  0.783999979       7.97843677E-06
  0.795000017      -9.99343865E-06
  0.805999994      -1.16707024E-05
  0.816999972       3.19443848E-06
  0.828000009       9.23480911E-06
  0.838999987      -1.77599497E-06
  0.850000024      -7.40257792E-06
  0.861000001       3.31396927E-06
  0.871999979       8.11317659E-06
  0.883000016      -1.81872713E-06
  0.893999994      -5.60049284E-06
  0.904999971      -3.40713825E-07
  0.916000009      -2.82791052E-06
  0.926999986      -6.63055016E-06
  0.938000023       3.41284431E-06
  0.949000001       1.38610530E-05
  0.959999979       7.49415403E-06
  0.971000016      -7.32260196E-06
  0.981999993      -1.41590763E-05
  0.992999971      -6.29096030E-06
   1.00399995       1.08562917E-05
   1.01499999       1.89070997E-05
   1.02600002       6.26105566E-06
   1.03699994      -1.21577723E-05
   1.04799998      -1.91695108E-05
   1.05900002      -1.15163830E-05
   1.07000005       8.38637607E-06
   1.08099997       2.28147037E-05
   1.09200001       1.01275828E-05
   1.10300004      -1.49011876E-05
   1.11399996      -1.70739331E-05
   1.12500000       1.01727016E-06
   1.13600004       1.06061825E-05
   1.14699996       5.43500164E-06
   1.15799999      -2.39612837E-06
   1.16900003      -5.18527577E-06
   1.17999995      -2.04185130E-06
   1.19099998       2.62074468E-06
   1.20200002       3.62353899E-06
   1.21300006       1.81121152E-06
   1.22399998      -3.16874491E-07
   1.23500001      -2.93478047E-06
   1.24600005      -3.18375760E-06
   1.25699997       2.24916533E-07
   1.26800001       1.63240179E-06
   1.27900004      -4.66495251E-08
   1.28999996      -1.05206674E-07
   1.30100000      -4.15253936E-07
   1.31200004      -2.09027507E-06
   1.32299995       1.99706506E-06
   1.33399999       7.66636276E-06
   1.34500003       6.47449554E-07
   1.35599995      -1.12698708E-05
   1.36699998      -7.71944360E-06
   1.37800002       4.85789496E-06
   1.38900006       7.86709734E-06
