 -0.959999979       0.00000000
 -0.925000012      -2.45816068E-06
 -0.889999986      -2.77355575E-05
 -0.855000019      -6.90070592E-05
 -0.819999993      -1.00057347E-04
 -0.785000026      -2.12304818E-04
 -0.750000000      -5.41927759E-04
 -0.714999974      -1.12043298E-03
 -0.680000007      -2.08574627E-03
 -0.644999981      -3.83785856E-03
 -0.610000014      -6.78496156E-03
 -0.574999988      -1.12515464E-02
 -0.540000021      -1.75602976E-02
 -0.504999995      -2.56894976E-02
 -0.469999999      -3.48800011E-02
 -0.435000002      -4.35784496E-02
 -0.400000006      -4.91385907E-02
 -0.365000010      -4.76463810E-02
 -0.330000013      -3.50234285E-02
 -0.294999987      -8.82027578E-03
 -0.259999990       3.04276180E-02
 -0.224999994       7.78144076E-02
 -0.189999998      0.122908838
 -0.155000001      0.150769010
 -0.119999997      0.145246759
  -8.50000009E-02   9.27978680E-02
  -5.00000007E-02  -1.37199573E-02
  -1.49999997E-02 -0.171900034
   1.99999996E-02 -0.369693905
   5.49999997E-02 -0.588549316
   9.00000036E-02 -0.806457520
  0.125000000     -0.998883784
  0.159999996      -1.13779998
  0.194999993      -1.18886161
  0.230000004      -1.10905576
  0.264999986     -0.850735188
  0.300000012     -0.375393212
  0.335000008      0.325869650
  0.370000005       1.21190333
  0.405000001       2.18030906
  0.439999998       3.07551074
  0.474999994       3.71914315
  0.509999990       3.95428658
  0.545000017       3.68867087
  0.579999983       2.92190719
  0.615000010       1.74658465
  0.649999976      0.324284524
  0.685000002      -1.15084958
  0.720000029      -2.48659492
  0.754999995      -3.51739025
  0.790000021      -4.11893940
  0.824999988      -4.21817398
  0.860000014      -3.80523896
  0.894999981      -2.94662929
  0.930000007      -1.78896630
  0.964999974     -0.541633546
   1.00000000      0.565650821
   1.03499997       1.34215271
   1.07000005       1.69200814
   1.10500002       1.64151716
   1.13999999       1.32214451
   1.17499995      0.913563669
   1.21000004      0.570345998
   1.24500000      0.365016162
   1.27999997      0.274015576
   1.31500006      0.212224633
   1.35000002       9.62966159E-02
   1.38499999      -9.79547054E-02
   1.41999996     -0.315345705
   1.45500004     -0.449895561
   1.49000001     -0.407342672
   1.52499998     -0.166825116
   1.55999994      0.194089890
   1.59500003      0.527316451
   1.63000000      0.682976544
