 -0.800000012       0.00000000
 -0.788999975       0.00000000
 -0.777999997       0.00000000
 -0.767000020      -8.57571791E-09
 -0.755999982       1.56412732E-08
 -0.745000005       2.54654623E-07
 -0.734000027      -3.95114398E-07
 -0.722999990      -1.29147679E-06
 -0.712000012       2.23337224E-06
 -0.700999975       3.24143753E-06
 -0.689999998      -6.90338356E-06
 -0.679000020      -4.53899656E-06
 -0.667999983       1.45192307E-05
 -0.657000005       2.32133402E-06
 -0.646000028      -2.21830542E-05
 -0.634999990       3.17565105E-06
 -0.624000013       2.11633578E-05
 -0.612999976      -4.90401408E-06
 -0.601999998       5.54167173E-06
 -0.591000021      -2.21771097E-06
 -0.579999983      -7.12877445E-05
 -0.569000006       6.79811546E-06
 -0.558000028       1.52653913E-04
 -0.546999991       7.81902884E-07
 -0.536000013      -1.89858241E-04
 -0.524999976       1.86611078E-06
 -0.513999999       1.54919966E-04
 -0.503000021      -2.54978186E-05
 -0.492000014      -7.17787116E-05
 -0.481000006       1.50684536E-05
 -0.469999999      -8.28548364E-05
 -0.458999991       3.82470898E-06
 -0.448000014       2.85829243E-04
 -0.437000006       1.36043062E-04
 -0.425999999      -1.41969213E-04
 -0.414999992       3.71950300E-05
 -0.404000014       2.20543370E-04
 -0.393000007       2.50316574E-04
 -0.381999999       5.42242778E-04
 -0.370999992       6.67883200E-04
 -0.360000014       4.42488992E-04
 -0.349000007       7.34744419E-04
 -0.338000000       1.43213512E-03
 -0.326999992       1.72545027E-03
 -0.316000015       2.13329075E-03
 -0.305000007       3.09416093E-03
 -0.294000000       3.92612908E-03
 -0.282999992       4.90423106E-03
 -0.272000015       6.86722901E-03
 -0.261000007       9.20833182E-03
 -0.250000000       1.14357276E-02
 -0.238999993       1.44614540E-02
 -0.228000000       1.86480992E-02
 -0.216999993       2.35424396E-02
 -0.206000000       2.94676218E-02
 -0.194999993       3.69387008E-02
 -0.184000000       4.57916893E-02
 -0.172999993       5.61382398E-02
 -0.162000000       6.85759634E-02
 -0.150999993       8.33034739E-02
 -0.140000001      0.100303896
 -0.128999993      0.119959168
 -0.118000001      0.142604083
 -0.107000001      0.168062985
  -9.60000008E-02  0.196286932
  -8.50000009E-02  0.227645442
  -7.40000010E-02  0.262007445
  -6.30000010E-02  0.298766136
  -5.20000011E-02  0.337859094
  -4.10000011E-02  0.378990918
  -2.99999993E-02  0.420745939
  -1.89999994E-02  0.462141842
  -8.00000038E-03  0.502856314
   3.00000003E-03  0.541278839
   1.40000004E-02  0.575253069
   2.50000004E-02  0.603555918
   3.59999985E-02  0.624342978
   4.69999984E-02  0.634992659
   5.79999983E-02  0.633873522
   6.89999983E-02  0.619174719
   7.99999982E-02  0.588104248
   9.09999982E-02  0.538946748
  0.101999998      0.470531553
  0.112999998      0.380824834
  0.123999998      0.268952817
  0.135000005      0.135219112
  0.145999998      -2.10363008E-02
  0.157000005     -0.199435994
  0.167999998     -0.397282958
  0.179000005     -0.612523615
  0.189999998     -0.843180478
  0.201000005      -1.08476329
  0.211999997      -1.33243787
  0.223000005      -1.58198261
  0.233999997      -1.82724965
  0.245000005      -2.06139135
  0.256000012      -2.27870917
  0.266999990      -2.47256684
  0.277999997      -2.63575244
  0.289000005      -2.76261568
  0.300000012      -2.84722257
  0.310999990      -2.88304234
  0.321999997      -2.86594772
  0.333000004      -2.79313707
  0.344000012      -2.66121459
  0.354999989      -2.46890426
  0.365999997      -2.21761847
  0.377000004      -1.90863788
  0.388000011      -1.54430461
  0.398999989      -1.13035750
  0.409999996     -0.673843801
  0.421000004     -0.181891963
  0.432000011      0.336189270
  0.442999989      0.869063497
  0.453999996       1.40552294
  0.465000004       1.93408585
  0.476000011       2.44184065
  0.486999989       2.91595769
  0.497999996       3.34495401
  0.509000003       3.71746182
  0.519999981       4.02250957
  0.531000018       4.25178909
  0.541999996       4.39902401
  0.552999973       4.45862722
  0.564000010       4.42812681
  0.574999988       4.30877399
  0.586000025       4.10254478
  0.597000003       3.81348634
  0.607999980       3.45038581
  0.619000018       3.02329063
  0.629999995       2.54202318
  0.640999973       2.02005243
  0.652000010       1.47271776
  0.662999988      0.913065493
  0.674000025      0.354966670
  0.685000002     -0.185811743
  0.695999980     -0.696652234
  0.707000017      -1.16728592
  0.717999995      -1.58646357
  0.728999972      -1.94566703
  0.740000010      -2.24060273
  0.750999987      -2.46720409
  0.762000024      -2.62307954
  0.773000002      -2.71047115
  0.783999979      -2.73277330
  0.795000017      -2.69332886
  0.805999994      -2.59879351
  0.816999972      -2.45761728
  0.828000009      -2.27704501
  0.838999987      -2.06526756
  0.850000024      -1.83205986
  0.861000001      -1.58574200
  0.871999979      -1.33342457
  0.883000016      -1.08291161
  0.893999994     -0.841129303
  0.904999971     -0.612765670
  0.916000009     -0.401832134
  0.926999986     -0.212070227
  0.938000023      -4.54675332E-02
  0.949000001       9.74392071E-02
  0.959999979      0.216124356
  0.971000016      0.310742706
  0.981999993      0.383077145
  0.992999971      0.435090989
   1.00399995      0.468213588
   1.01499999      0.484865189
   1.02600002      0.488085628
   1.03699994      0.479832590
   1.04799998      0.462078601
   1.05900002      0.437719345
   1.07000005      0.408702672
   1.08099997      0.376092225
   1.09200001      0.341855586
   1.10300004      0.307635069
   1.11399996      0.273705870
   1.12500000      0.240912631
   1.13600004      0.210518703
   1.14699996      0.182369605
   1.15799999      0.156279564
   1.16900003      0.133139148
   1.17999995      0.112897173
   1.19099998       9.46555436E-02
   1.20200002       7.86912441E-02
   1.21300006       6.53535053E-02
   1.22399998       5.37788272E-02
   1.23500001       4.36454155E-02
   1.24600005       3.54527086E-02
   1.25699997       2.87363771E-02
   1.26800001       2.27776822E-02
   1.27900004       1.79112591E-02
   1.28999996       1.41803706E-02
   1.30100000       1.08819669E-02
   1.31200004       8.09525326E-03
   1.32299995       6.18876051E-03
   1.33399999       4.59063845E-03
   1.34500003       3.03619052E-03
   1.35599995       2.06616404E-03
   1.36699998       1.43143896E-03
   1.37800002       5.50373865E-04
   1.38900006      -8.61569133E-05
