 -0.800000012       0.00000000
 -0.788999975       0.00000000
 -0.777999997       0.00000000
 -0.767000020       0.00000000
 -0.755999982      -1.19482823E-14
 -0.745000005      -2.97155828E-14
 -0.734000027      -6.66404215E-13
 -0.722999990       2.75070374E-12
 -0.712000012      -6.44785050E-12
 -0.700999975       1.13554305E-11
 -0.689999998       7.56094232E-12
 -0.679000020      -1.10035779E-10
 -0.667999983       1.64014496E-10
 -0.657000005       2.87914359E-10
 -0.646000028      -9.53381485E-10
 -0.634999990      -1.18147256E-10
 -0.624000013       2.86612778E-09
 -0.612999976      -1.52795732E-09
 -0.601999998      -5.65793679E-09
 -0.591000021       5.93803984E-09
 -0.579999983       7.14152559E-09
 -0.569000006      -1.28283508E-08
 -0.558000028      -2.61561972E-09
 -0.546999991       1.86305709E-08
 -0.536000013      -1.33447449E-08
 -0.524999976      -1.77261512E-08
 -0.513999999       3.99744486E-08
 -0.503000021       6.27102636E-09
 -0.492000014      -5.91591984E-08
 -0.481000006       1.91715941E-08
 -0.469999999       3.46284601E-08
 -0.458999991      -7.15442283E-08
 -0.448000014       5.26100763E-08
 -0.437000006       1.59254284E-07
 -0.425999999      -1.55799469E-07
 -0.414999992      -2.18661867E-07
 -0.404000014       2.10889851E-07
 -0.393000007       1.11593117E-07
 -0.381999999      -2.70279116E-07
 -0.370999992       1.40296294E-07
 -0.360000014       3.45781530E-07
 -0.349000007      -3.26423049E-07
 -0.338000000      -1.25037516E-07
 -0.326999992       7.02900365E-07
 -0.316000015      -9.45485894E-08
 -0.305000007      -1.21313576E-06
 -0.294000000      -7.03989826E-07
 -0.282999992      -9.17223417E-07
 -0.272000015      -2.78977268E-06
 -0.261000007      -3.55494558E-06
 -0.250000000      -4.05719402E-06
 -0.238999993      -7.03239766E-06
 -0.228000000      -1.03119828E-05
 -0.216999993      -1.26318328E-05
 -0.206000000      -1.76910999E-05
 -0.194999993      -2.58143245E-05
 -0.184000000      -3.42717103E-05
 -0.172999993      -4.56470370E-05
 -0.162000000      -6.30477225E-05
 -0.150999993      -8.45287141E-05
 -0.140000001      -1.11084257E-04
 -0.128999993      -1.47791550E-04
 -0.118000001      -1.95402623E-04
 -0.107000001      -2.54107377E-04
  -9.60000008E-02  -3.29794129E-04
  -8.50000009E-02  -4.27101186E-04
  -7.40000010E-02  -5.47624193E-04
  -6.30000010E-02  -6.97705895E-04
  -5.20000011E-02  -8.85494810E-04
  -4.10000011E-02  -1.11541629E-03
  -2.99999993E-02  -1.39491539E-03
  -1.89999994E-02  -1.73589867E-03
  -8.00000038E-03  -2.14684173E-03
   3.00000003E-03  -2.63600168E-03
   1.40000004E-02  -3.21723334E-03
   2.50000004E-02  -3.90270725E-03
   3.59999985E-02  -4.70100250E-03
   4.69999984E-02  -5.62547147E-03
   5.79999983E-02  -6.69032102E-03
   6.89999983E-02  -7.90270790E-03
   7.99999982E-02  -9.27003566E-03
   9.09999982E-02  -1.08027859E-02
  0.101999998      -1.25036621E-02
  0.112999998      -1.43687613E-02
  0.123999998      -1.63963921E-02
  0.135000005      -1.85791273E-02
  0.145999998      -2.08966974E-02
  0.157000005      -2.33262759E-02
  0.167999998      -2.58433670E-02
  0.179000005      -2.84096617E-02
  0.189999998      -3.09771355E-02
  0.201000005      -3.34980637E-02
  0.211999997      -3.59166563E-02
  0.223000005      -3.81643698E-02
  0.233999997      -4.01725061E-02
  0.245000005      -4.18733396E-02
  0.256000012      -4.31902185E-02
  0.266999990      -4.40451726E-02
  0.277999997      -4.43698242E-02
  0.289000005      -4.40979563E-02
  0.300000012      -4.31640744E-02
  0.310999990      -4.15168889E-02
  0.321999997      -3.91190834E-02
  0.333000004      -3.59389558E-02
  0.344000012      -3.19594331E-02
  0.354999989      -2.71856543E-02
  0.365999997      -2.16349177E-02
  0.377000004      -1.53356986E-02
  0.388000011      -8.33808072E-03
  0.398999989      -7.08350271E-04
  0.409999996       7.48046441E-03
  0.421000004       1.61415674E-02
  0.432000011       2.51730196E-02
  0.442999989       3.44702117E-02
  0.453999996       4.39258367E-02
  0.465000004       5.34228273E-02
  0.476000011       6.28429800E-02
  0.486999989       7.20742792E-02
  0.497999996       8.10026228E-02
  0.509000003       8.95116553E-02
  0.519999981       9.74930152E-02
  0.531000018      0.104843237
  0.541999996      0.111455433
  0.552999973      0.117225863
  0.564000010      0.122058883
  0.574999988      0.125858337
  0.586000025      0.128526375
  0.597000003      0.129972994
  0.607999980      0.130115598
  0.619000018      0.128873050
  0.629999995      0.126173154
  0.640999973      0.121961288
  0.652000010      0.116197512
  0.662999988      0.108858332
  0.674000025       9.99478027E-02
  0.685000002       8.95007104E-02
  0.695999980       7.75804892E-02
  0.707000017       6.42854795E-02
  0.717999995       4.97539937E-02
  0.728999972       3.41601260E-02
  0.740000010       1.77128632E-02
  0.750999987       6.57899538E-04
  0.762000024      -1.67297702E-02
  0.773000002      -3.41539830E-02
  0.783999979      -5.12995124E-02
  0.795000017      -6.78411201E-02
  0.805999994      -8.34587589E-02
  0.816999972      -9.78444368E-02
  0.828000009     -0.110707603
  0.838999987     -0.121789984
  0.850000024     -0.130877182
  0.861000001     -0.137800157
  0.871999979     -0.142440602
  0.883000016     -0.144741341
  0.893999994     -0.144706532
  0.904999971     -0.142395884
  0.916000009     -0.137924939
  0.926999986     -0.131465077
  0.938000023     -0.123232506
  0.949000001     -0.113477260
  0.959999979     -0.102479115
  0.971000016      -9.05390009E-02
  0.981999993      -7.79634267E-02
  0.992999971      -6.50553852E-02
   1.00399995      -5.21097742E-02
   1.01499999      -3.94023992E-02
   1.02600002      -2.71790754E-02
   1.03699994      -1.56541076E-02
   1.04799998      -5.00808517E-03
   1.05900002       4.61898185E-03
   1.07000005       1.31281829E-02
   1.08099997       2.04572640E-02
   1.09200001       2.65806876E-02
   1.10300004       3.15088965E-02
   1.11399996       3.52811180E-02
   1.12500000       3.79601009E-02
   1.13600004       3.96306142E-02
   1.14699996       4.03933935E-02
   1.15799999       4.03568782E-02
   1.16900003       3.96349840E-02
   1.17999995       3.83455232E-02
   1.19099998       3.66028585E-02
   1.20200002       3.45133841E-02
   1.21300006       3.21775079E-02
   1.22399998       2.96875760E-02
   1.23500001       2.71220021E-02
   1.24600005       2.45470963E-02
   1.25699997       2.20207553E-02
   1.26800001       1.95883699E-02
   1.27900004       1.72819011E-02
   1.28999996       1.51263140E-02
   1.30100000       1.31393271E-02
   1.31200004       1.13275070E-02
   1.32299995       9.69171897E-03
   1.33399999       8.23147781E-03
   1.34500003       6.94001745E-03
   1.35599995       5.80531033E-03
   1.36699998       4.81738802E-03
   1.37800002       3.96610890E-03
   1.38900006       3.23668495E-03
