 -0.959999979      -5.57172345E-04
 -0.925000012       2.18295711E-04
 -0.889999986       2.32895945E-05
 -0.855000019      -1.28600758E-03
 -0.819999993      -2.20371922E-03
 -0.785000026      -3.05940304E-03
 -0.750000000      -4.49360302E-03
 -0.714999974      -6.67401543E-03
 -0.680000007      -9.82849859E-03
 -0.644999981      -1.10184895E-02
 -0.610000014      -5.37406839E-03
 -0.574999988       8.28427635E-03
 -0.540000021       3.09537724E-02
 -0.504999995       6.69056177E-02
 -0.469999999      0.113199718
 -0.435000002      0.153737202
 -0.400000006      0.166930392
 -0.365000010      0.125689864
 -0.330000013      -3.63172451E-03
 -0.294999987     -0.236818060
 -0.259999990     -0.544124007
 -0.224999994     -0.855376065
 -0.189999998      -1.08214974
 -0.155000001      -1.14003563
 -0.119999997     -0.994522393
  -8.50000009E-02 -0.724943578
  -5.00000007E-02 -0.545445323
  -1.49999997E-02 -0.747302949
   1.99999996E-02  -1.57850361
   5.49999997E-02  -3.08499718
   9.00000036E-02  -4.95506811
  0.125000000      -6.46070385
  0.159999996      -6.58581352
  0.194999993      -4.34388542
  0.230000004      0.798933625
  0.264999986       8.53555679
  0.300000012       17.5440540
  0.335000008       25.6760406
  0.370000005       30.5074787
  0.405000001       30.0830173
  0.439999998       23.5929165
  0.474999994       11.7217093
  0.509999990      -3.47966790
  0.545000017      -19.1363544
  0.579999983      -32.2788658
  0.615000010      -40.5225067
  0.649999976      -42.5323296
  0.685000002      -38.2008057
  0.720000029      -28.5688457
  0.754999995      -15.5724907
  0.790000021      -1.65001881
  0.824999988       10.7706289
  0.860000014       19.8010159
  0.894999981       24.4699001
  0.930000007       24.8294449
  0.964999974       21.7637463
   1.00000000       16.5796375
   1.03499997       10.5732040
   1.07000005       4.77634287
   1.10500002      -6.77465349E-02
   1.13999999      -3.42979455
   1.17499995      -4.98104239
   1.21000004      -4.69454145
   1.24500000      -2.97904325
   1.27999997     -0.682262838
   1.31500006       1.15485787
   1.35000002       1.73079360
   1.38499999      0.860117316
   1.41999996     -0.958364844
   1.45500004      -2.85083795
   1.49000001      -4.07550097
   1.52499998      -4.40423536
   1.55999994      -4.13201761
   1.59500003      -3.73085952
   1.63000000      -3.41869736
