 -0.959999979       0.00000000
 -0.925000012      -2.50934008E-05
 -0.889999986      -5.84246191E-05
 -0.855000019      -1.93209475E-04
 -0.819999993      -3.34945449E-04
 -0.785000026      -2.42201233E-04
 -0.750000000      -7.47215585E-04
 -0.714999974      -2.88279494E-03
 -0.680000007      -4.99210693E-03
 -0.644999981      -5.76259755E-03
 -0.610000014      -9.15932097E-03
 -0.574999988      -1.74620282E-02
 -0.540000021      -2.42907833E-02
 -0.504999995      -2.55929399E-02
 -0.469999999      -2.59008631E-02
 -0.435000002      -2.30911840E-02
 -0.400000006      -5.83217060E-03
 -0.365000010       2.73542702E-02
 -0.330000013       6.91293627E-02
 -0.294999987      0.119566634
 -0.259999990      0.177294225
 -0.224999994      0.229691625
 -0.189999998      0.274002582
 -0.155000001      0.327973336
 -0.119999997      0.409290135
  -8.50000009E-02  0.526575804
  -5.00000007E-02  0.678296924
  -1.49999997E-02  0.820694089
   1.99999996E-02  0.836908162
   5.49999997E-02  0.552643478
   9.00000036E-02 -0.223920539
  0.125000000      -1.65081143
  0.159999996      -3.76691031
  0.194999993      -6.39748907
  0.230000004      -9.10283279
  0.264999986      -11.1859570
  0.300000012      -11.7825718
  0.335000008      -10.0624132
  0.370000005      -5.49867249
  0.405000001       1.87943244
  0.439999998       11.3116026
  0.474999994       21.3000317
  0.509999990       29.8549767
  0.545000017       34.9422455
  0.579999983       34.9739151
  0.615000010       29.2291679
  0.649999976       18.1108189
  0.685000002       3.12808895
  0.720000029      -13.4000931
  0.754999995      -28.7879887
  0.790000021      -40.4634819
  0.824999988      -46.4546013
  0.860000014      -45.7965927
  0.894999981      -38.7260818
  0.930000007      -26.6030121
  0.964999974      -11.6038790
   1.00000000       3.73238802
   1.03499997       17.0226269
   1.07000005       26.4961853
   1.10500002       31.2367935
   1.13999999       31.1695690
   1.17499995       26.9175873
   1.21000004       19.6443138
   1.24500000       10.8673582
   1.27999997       2.20772362
   1.31500006      -4.88582659
   1.35000002      -9.40768528
   1.38499999      -11.0322437
   1.41999996      -10.1886644
   1.45500004      -7.84929848
   1.49000001      -5.10449076
   1.52499998      -2.75128865
   1.55999994      -1.09119070
   1.59500003      -3.07960412E-03
   1.63000000      0.783680499
