 -0.959999979       0.00000000
 -0.925000012      -5.90870623E-36
 -0.889999986       0.00000000
 -0.855000019       0.00000000
 -0.819999993       1.26984132E-10
 -0.785000026      -2.53968263E-10
 -0.750000000       0.00000000
 -0.714999974       5.07936537E-09
 -0.680000007       0.00000000
 -0.644999981      -1.62539688E-08
 -0.610000014       1.62539688E-08
 -0.574999988       3.25079377E-08
 -0.540000021      -4.87619047E-08
 -0.504999995       3.25079377E-08
 -0.469999999       2.60063501E-07
 -0.435000002      -7.15174622E-07
 -0.400000006      -3.90095238E-07
 -0.365000010       1.17028571E-06
 -0.330000013       2.60063501E-07
 -0.294999987      -1.82044448E-06
 -0.259999990       2.73066667E-06
 -0.224999994       3.25079372E-06
 -0.189999998      -4.22603171E-06
 -0.155000001      -5.13625400E-06
 -0.119999997      -6.50158768E-07
  -8.50000009E-02   3.38082555E-06
  -5.00000007E-02   8.58209569E-06
  -1.49999997E-02  -5.20127014E-06
   1.99999996E-02  -1.71641914E-05
   5.49999997E-02   1.45635559E-05
   9.00000036E-02   2.18453333E-05
  0.125000000      -1.05325717E-05
  0.159999996      -3.87819709E-05
  0.194999993       1.11827303E-05
  0.230000004       8.16599422E-05
  0.264999986      -7.77589885E-05
  0.300000012      -2.57462871E-05
  0.335000008       7.60685725E-05
  0.370000005      -1.76843187E-05
  0.405000001      -9.25826098E-05
  0.439999998       8.13998777E-05
  0.474999994       3.97897165E-05
  0.509999990      -9.57033699E-05
  0.545000017       3.15977159E-05
  0.579999983       8.79664804E-05
  0.615000010      -9.41023536E-05
  0.649999976      -2.60063501E-07
  0.685000002       5.17526350E-05
  0.720000029      -6.13749871E-05
  0.754999995      -3.12076190E-06
  0.790000021       1.37053459E-04
  0.824999988      -6.65762564E-05
  0.860000014      -1.26976011E-04
  0.894999981       7.26877479E-05
  0.930000007       5.07123841E-05
  0.964999974      -6.13749871E-05
   1.00000000       5.33130187E-05
   1.03499997       8.19200068E-06
   1.07000005      -7.70113038E-05
   1.10500002       5.26628573E-05
   1.13999999       4.47309212E-05
   1.17499995      -1.35460577E-04
   1.21000004       1.40434295E-05
   1.24500000       1.91146668E-04
   1.27999997      -1.56038095E-05
   1.31500006      -1.77103240E-04
   1.35000002      -5.98146062E-06
   1.38499999       8.42605732E-05
   1.41999996      -1.82044448E-06
   1.45500004      -2.60063507E-06
   1.49000001       2.40558747E-05
   1.52499998       2.60063507E-06
   1.55999994      -4.23903512E-05
   1.59500003      -5.42232410E-05
   1.63000000       5.91360003E-05
