 -0.800000012       0.00000000
 -0.788999975       0.00000000
 -0.777999997       0.00000000
 -0.767000020       5.57297333E-11
 -0.755999982      -5.90244964E-10
 -0.745000005      -1.64344191E-10
 -0.734000027       6.83978429E-09
 -0.722999990       1.65275593E-09
 -0.712000012      -2.28554384E-08
 -0.700999975       2.81272283E-10
 -0.689999998       4.98473973E-08
 -0.679000020      -1.30683571E-08
 -0.667999983      -7.61028858E-08
 -0.657000005       5.35147642E-08
 -0.646000028       1.15560454E-07
 -0.634999990      -6.76944865E-08
 -0.624000013      -1.34220542E-07
 -0.612999976      -2.74518488E-08
 -0.601999998       2.85772792E-08
 -0.591000021       2.53810327E-07
 -0.579999983       3.80431942E-07
 -0.569000006      -2.76973196E-07
 -0.558000028      -7.74263469E-07
 -0.546999991       1.10822754E-07
 -0.536000013       9.50498134E-07
 -0.524999976       1.62460040E-07
 -0.513999999      -8.67982351E-07
 -0.503000021      -5.03363822E-07
 -0.492000014       7.41485678E-07
 -0.481000006       1.67483518E-06
 -0.469999999       1.15566877E-06
 -0.458999991      -1.04130345E-06
 -0.448000014      -2.56888893E-06
 -0.437000006      -1.38478117E-06
 -0.425999999       4.06162201E-07
 -0.414999992      -4.46128809E-07
 -0.404000014      -3.99634200E-06
 -0.393000007      -8.28400243E-06
 -0.381999999      -1.18028393E-05
 -0.370999992      -1.46487555E-05
 -0.360000014      -1.93884716E-05
 -0.349000007      -2.88568663E-05
 -0.338000000      -4.27060768E-05
 -0.326999992      -5.90330892E-05
 -0.316000015      -7.82370116E-05
 -0.305000007      -1.03356979E-04
 -0.294000000      -1.39152282E-04
 -0.282999992      -1.90770967E-04
 -0.272000015      -2.60204601E-04
 -0.261000007      -3.46599729E-04
 -0.250000000      -4.53429995E-04
 -0.238999993      -5.91444143E-04
 -0.228000000      -7.72285159E-04
 -0.216999993      -1.00419903E-03
 -0.206000000      -1.29530870E-03
 -0.194999993      -1.65692403E-03
 -0.184000000      -2.10443814E-03
 -0.172999993      -2.65802932E-03
 -0.162000000      -3.34034674E-03
 -0.150999993      -4.17276798E-03
 -0.140000001      -5.17729530E-03
 -0.128999993      -6.38121180E-03
 -0.118000001      -7.81668816E-03
 -0.107000001      -9.51709785E-03
  -9.60000008E-02  -1.15148798E-02
  -8.50000009E-02  -1.38413934E-02
  -7.40000010E-02  -1.65281054E-02
  -6.30000010E-02  -1.96063202E-02
  -5.20000011E-02  -2.31039375E-02
  -4.10000011E-02  -2.70431619E-02
  -2.99999993E-02  -3.14393342E-02
  -1.89999994E-02  -3.62976640E-02
  -8.00000038E-03  -4.16117273E-02
   3.00000003E-03  -4.73634191E-02
   1.40000004E-02  -5.35177700E-02
   2.50000004E-02  -6.00186661E-02
   3.59999985E-02  -6.67917803E-02
   4.69999984E-02  -7.37434626E-02
   5.79999983E-02  -8.07546824E-02
   6.89999983E-02  -8.76826718E-02
   7.99999982E-02  -9.43634138E-02
   9.09999982E-02 -0.100608133
  0.101999998     -0.106207125
  0.112999998     -0.110938609
  0.123999998     -0.114567161
  0.135000005     -0.116844535
  0.145999998     -0.117523015
  0.157000005     -0.116362363
  0.167999998     -0.113130808
  0.179000005     -0.107617483
  0.189999998      -9.96445566E-02
  0.201000005      -8.90688226E-02
  0.211999997      -7.57901296E-02
  0.223000005      -5.97651303E-02
  0.233999997      -4.10102159E-02
  0.245000005      -1.96036007E-02
  0.256000012       4.30467585E-03
  0.266999990       3.04896552E-02
  0.277999997       5.86552955E-02
  0.289000005       8.84337127E-02
  0.300000012      0.119386569
  0.310999990      0.151014104
  0.321999997      0.182762653
  0.333000004      0.214031249
  0.344000012      0.244183838
  0.354999989      0.272563696
  0.365999997      0.298507988
  0.377000004      0.321365237
  0.388000011      0.340513378
  0.398999989      0.355376184
  0.409999996      0.365439266
  0.421000004      0.370266527
  0.432000011      0.369516641
  0.442999989      0.362958401
  0.453999996      0.350482553
  0.465000004      0.332110703
  0.476000011      0.308001548
  0.486999989      0.278452396
  0.497999996      0.243895337
  0.509000003      0.204892635
  0.519999981      0.162128150
  0.531000018      0.116391353
  0.541999996       6.85577691E-02
  0.552999973       1.95689294E-02
  0.564000010      -2.95920856E-02
  0.574999988      -7.79298544E-02
  0.586000025     -0.124464832
  0.597000003     -0.168259263
  0.607999980     -0.208444446
  0.619000018     -0.244247660
  0.629999995     -0.275013477
  0.640999973     -0.300220966
  0.652000010     -0.319498658
  0.662999988     -0.332634628
  0.674000025     -0.339577556
  0.685000002     -0.340433836
  0.695999980     -0.335461318
  0.707000017     -0.325055569
  0.717999995     -0.309731811
  0.728999972     -0.290105194
  0.740000010     -0.266867578
  0.750999987     -0.240761384
  0.762000024     -0.212554529
  0.773000002     -0.183016524
  0.783999979     -0.152894184
  0.795000017     -0.122890130
  0.805999994      -9.36453640E-02
  0.816999972      -6.57239258E-02
  0.828000009      -3.96018587E-02
  0.838999987      -1.56621989E-02
  0.850000024       5.80707332E-03
  0.861000001       2.46134847E-02
  0.871999979       4.06562574E-02
  0.883000016       5.39189950E-02
  0.893999994       6.44608960E-02
  0.904999971       7.24060163E-02
  0.916000009       7.79303312E-02
  0.926999986       8.12489688E-02
  0.938000023       8.26054737E-02
  0.949000001       8.22612718E-02
  0.959999979       8.04840475E-02
  0.971000016       7.75378346E-02
  0.981999993       7.36764893E-02
  0.992999971       6.91378266E-02
   1.00399995       6.41376972E-02
   1.01499999       5.88673465E-02
   1.02600002       5.34930304E-02
   1.03699994       4.81535643E-02
   1.04799998       4.29592282E-02
   1.05900002       3.79958078E-02
   1.07000005       3.33284698E-02
   1.08099997       2.90019140E-02
   1.09200001       2.50420757E-02
   1.10300004       2.14600824E-02
   1.11399996       1.82543006E-02
   1.12500000       1.54126016E-02
   1.13600004       1.29169589E-02
   1.14699996       1.07456986E-02
   1.15799999       8.87311436E-03
   1.16900003       7.27096526E-03
   1.17999995       5.91067178E-03
   1.19099998       4.76427516E-03
   1.20200002       3.80598148E-03
   1.21300006       3.01263016E-03
   1.22399998       2.36181240E-03
   1.23500001       1.83198031E-03
   1.24600005       1.40432722E-03
   1.25699997       1.06245081E-03
   1.26800001       7.92174891E-04
   1.27900004       5.82416891E-04
   1.28999996       4.23144636E-04
   1.30100000       3.03693610E-04
   1.31200004       2.15271473E-04
   1.32299995       1.51863380E-04
   1.33399999       1.08201551E-04
   1.34500003       7.99817863E-05
   1.35599995       6.38296697E-05
   1.36699998       5.53526515E-05
   1.37800002       5.07445038E-05
   1.38900006       4.89594531E-05
