 -0.800000012       0.00000000
 -0.788999975       0.00000000
 -0.777999997       0.00000000
 -0.767000020      -5.57297160E-11
 -0.755999982       5.90244853E-10
 -0.745000005       1.64344233E-10
 -0.734000027      -6.83978252E-09
 -0.722999990      -1.65275282E-09
 -0.712000012       2.28554384E-08
 -0.700999975      -2.81284135E-10
 -0.689999998      -4.98474044E-08
 -0.679000020       1.30683668E-08
 -0.667999983       7.61029000E-08
 -0.657000005      -5.35147819E-08
 -0.646000028      -1.15560461E-07
 -0.634999990       6.76944865E-08
 -0.624000013       1.34220500E-07
 -0.612999976       2.74519465E-08
 -0.601999998      -2.85770039E-08
 -0.591000021      -2.53810214E-07
 -0.579999983      -3.80431885E-07
 -0.569000006       2.76973225E-07
 -0.558000028       7.74263640E-07
 -0.546999991      -1.10822349E-07
 -0.536000013      -9.50498304E-07
 -0.524999976      -1.62460253E-07
 -0.513999999       8.67983886E-07
 -0.503000021       5.03365300E-07
 -0.492000014      -7.41487668E-07
 -0.481000006      -1.67483711E-06
 -0.469999999      -1.15566684E-06
 -0.458999991       1.04130447E-06
 -0.448000014       2.56888711E-06
 -0.437000006       1.38477901E-06
 -0.425999999      -4.06166208E-07
 -0.414999992       4.46133129E-07
 -0.404000014       3.99636428E-06
 -0.393000007       8.28400152E-06
 -0.381999999       1.18027956E-05
 -0.370999992       1.46487409E-05
 -0.360000014       1.93885226E-05
 -0.349000007       2.88568826E-05
 -0.338000000       4.27060440E-05
 -0.326999992       5.90330565E-05
 -0.316000015       7.82369534E-05
 -0.305000007       1.03357037E-04
 -0.294000000       1.39152558E-04
 -0.282999992       1.90770967E-04
 -0.272000015       2.60204019E-04
 -0.261000007       3.46599409E-04
 -0.250000000       4.53430606E-04
 -0.238999993       5.91444608E-04
 -0.228000000       7.72284809E-04
 -0.216999993       1.00419903E-03
 -0.206000000       1.29530905E-03
 -0.194999993       1.65692379E-03
 -0.184000000       2.10443698E-03
 -0.172999993       2.65802862E-03
 -0.162000000       3.34034697E-03
 -0.150999993       4.17277031E-03
 -0.140000001       5.17729577E-03
 -0.128999993       6.38120901E-03
 -0.118000001       7.81668629E-03
 -0.107000001       9.51710157E-03
  -9.60000008E-02   1.15148835E-02
  -8.50000009E-02   1.38413897E-02
  -7.40000010E-02   1.65280979E-02
  -6.30000010E-02   1.96063221E-02
  -5.20000011E-02   2.31039468E-02
  -4.10000011E-02   2.70431675E-02
  -2.99999993E-02   3.14393342E-02
  -1.89999994E-02   3.62976603E-02
  -8.00000038E-03   4.16117199E-02
   3.00000003E-03   4.73634228E-02
   1.40000004E-02   5.35177737E-02
   2.50000004E-02   6.00186624E-02
   3.59999985E-02   6.67917728E-02
   4.69999984E-02   7.37434551E-02
   5.79999983E-02   8.07547048E-02
   6.89999983E-02   8.76826867E-02
   7.99999982E-02   9.43634212E-02
   9.09999982E-02  0.100608118
  0.101999998      0.106207103
  0.112999998      0.110938609
  0.123999998      0.114567168
  0.135000005      0.116844527
  0.145999998      0.117523000
  0.157000005      0.116362363
  0.167999998      0.113130815
  0.179000005      0.107617490
  0.189999998       9.96445641E-02
  0.201000005       8.90688226E-02
  0.211999997       7.57901222E-02
  0.223000005       5.97651228E-02
  0.233999997       4.10102010E-02
  0.245000005       1.96035895E-02
  0.256000012      -4.30468190E-03
  0.266999990      -3.04896366E-02
  0.277999997      -5.86552396E-02
  0.289000005      -8.84336606E-02
  0.300000012     -0.119386606
  0.310999990     -0.151014194
  0.321999997     -0.182762727
  0.333000004     -0.214031264
  0.344000012     -0.244183779
  0.354999989     -0.272563607
  0.365999997     -0.298507959
  0.377000004     -0.321365297
  0.388000011     -0.340513498
  0.398999989     -0.355376214
  0.409999996     -0.365439266
  0.421000004     -0.370266527
  0.432000011     -0.369516671
  0.442999989     -0.362958461
  0.453999996     -0.350482643
  0.465000004     -0.332110703
  0.476000011     -0.308001488
  0.486999989     -0.278452277
  0.497999996     -0.243895277
  0.509000003     -0.204892710
  0.519999981     -0.162128240
  0.531000018     -0.116391331
  0.541999996      -6.85577467E-02
  0.552999973      -1.95690338E-02
  0.564000010       2.95919552E-02
  0.574999988       7.79298693E-02
  0.586000025      0.124464996
  0.597000003      0.168259457
  0.607999980      0.208444536
  0.619000018      0.244247615
  0.629999995      0.275013387
  0.640999973      0.300220907
  0.652000010      0.319498718
  0.662999988      0.332634717
  0.674000025      0.339577556
  0.685000002      0.340433806
  0.695999980      0.335461289
  0.707000017      0.325055599
  0.717999995      0.309731781
  0.728999972      0.290105134
  0.740000010      0.266867578
  0.750999987      0.240761429
  0.762000024      0.212554544
  0.773000002      0.183016539
  0.783999979      0.152894139
  0.795000017      0.122890025
  0.805999994       9.36452895E-02
  0.816999972       6.57239333E-02
  0.828000009       3.96018699E-02
  0.838999987       1.56621262E-02
  0.850000024      -5.80721814E-03
  0.861000001      -2.46135686E-02
  0.871999979      -4.06562090E-02
  0.883000016      -5.39188907E-02
  0.893999994      -6.44608736E-02
  0.904999971      -7.24060535E-02
  0.916000009      -7.79303536E-02
  0.926999986      -8.12490508E-02
  0.938000023      -8.26056227E-02
  0.949000001      -8.22613165E-02
  0.959999979      -8.04839432E-02
  0.971000016      -7.75377229E-02
  0.981999993      -7.36764520E-02
  0.992999971      -6.91378862E-02
   1.00399995      -6.41378015E-02
   1.01499999      -5.88674098E-02
   1.02600002      -5.34930080E-02
   1.03699994      -4.81535420E-02
   1.04799998      -4.29592319E-02
   1.05900002      -3.79958004E-02
   1.07000005      -3.33284512E-02
   1.08099997      -2.90019084E-02
   1.09200001      -2.50420719E-02
   1.10300004      -2.14600898E-02
   1.11399996      -1.82543136E-02
   1.12500000      -1.54125793E-02
   1.13600004      -1.29169198E-02
   1.14699996      -1.07456744E-02
   1.15799999      -8.87309387E-03
   1.16900003      -7.27098947E-03
   1.17999995      -5.91078820E-03
   1.19099998      -4.76437295E-03
   1.20200002      -3.80593725E-03
   1.21300006      -3.01250047E-03
   1.22399998      -2.36172555E-03
   1.23500001      -1.83201069E-03
   1.24600005      -1.40446413E-03
   1.25699997      -1.06256700E-03
   1.26800001      -7.92170293E-04
   1.27900004      -5.82368404E-04
   1.28999996      -4.23122925E-04
   1.30100000      -3.03626031E-04
   1.31200004      -2.15145454E-04
   1.32299995      -1.51795801E-04
   1.33399999      -1.08231681E-04
   1.34500003      -8.00332637E-05
   1.35599995      -6.38626443E-05
   1.36699998      -5.53869977E-05
   1.37800002      -5.07740879E-05
   1.38900006      -4.89532722E-05
