 -0.800000012       0.00000000
 -0.788999975       0.00000000
 -0.777999997       0.00000000
 -0.767000020      -8.57572058E-09
 -0.755999982       1.56413353E-08
 -0.745000005       2.54654367E-07
 -0.734000027      -3.95114483E-07
 -0.722999990      -1.29147622E-06
 -0.712000012       2.23337292E-06
 -0.700999975       3.24143571E-06
 -0.689999998      -6.90338493E-06
 -0.679000020      -4.53899247E-06
 -0.667999983       1.45192289E-05
 -0.657000005       2.32132970E-06
 -0.646000028      -2.21830524E-05
 -0.634999990       3.17565946E-06
 -0.624000013       2.11633578E-05
 -0.612999976      -4.90402908E-06
 -0.601999998       5.54168946E-06
 -0.591000021      -2.21770551E-06
 -0.579999983      -7.12877809E-05
 -0.569000006       6.79810910E-06
 -0.558000028       1.52653898E-04
 -0.546999991       7.81862298E-07
 -0.536000013      -1.89858096E-04
 -0.524999976       1.86614818E-06
 -0.513999999       1.54919588E-04
 -0.503000021      -2.54978240E-05
 -0.492000014      -7.17781295E-05
 -0.481000006       1.50684282E-05
 -0.469999999      -8.28553602E-05
 -0.458999991       3.82446933E-06
 -0.448000014       2.85829417E-04
 -0.437000006       1.36044371E-04
 -0.425999999      -1.41969518E-04
 -0.414999992       3.71915012E-05
 -0.404000014       2.20545349E-04
 -0.393000007       2.50323326E-04
 -0.381999999       5.42237831E-04
 -0.370999992       6.67875283E-04
 -0.360000014       4.42498422E-04
 -0.349000007       7.34748784E-04
 -0.338000000       1.43211975E-03
 -0.326999992       1.72545330E-03
 -0.316000015       2.13330798E-03
 -0.305000007       3.09415208E-03
 -0.294000000       3.92612256E-03
 -0.282999992       4.90425061E-03
 -0.272000015       6.86720992E-03
 -0.261000007       9.20829363E-03
 -0.250000000       1.14357648E-02
 -0.238999993       1.44615099E-02
 -0.228000000       1.86480843E-02
 -0.216999993       2.35424042E-02
 -0.206000000       2.94675585E-02
 -0.194999993       3.69386673E-02
 -0.184000000       4.57918346E-02
 -0.172999993       5.61384112E-02
 -0.162000000       6.85757324E-02
 -0.150999993       8.33031312E-02
 -0.140000001      0.100304134
 -0.128999993      0.119959593
 -0.118000001      0.142604038
 -0.107000001      0.168062612
  -9.60000008E-02  0.196286649
  -8.50000009E-02  0.227645233
  -7.40000010E-02  0.262007862
  -6.30000010E-02  0.298767209
  -5.20000011E-02  0.337858588
  -4.10000011E-02  0.378989398
  -2.99999993E-02  0.420746356
  -1.89999994E-02  0.462142915
  -8.00000038E-03  0.502855837
   3.00000003E-03  0.541279376
   1.40000004E-02  0.575254679
   2.50000004E-02  0.603555083
   3.59999985E-02  0.624341488
   4.69999984E-02  0.634993732
   5.79999983E-02  0.633875370
   6.89999983E-02  0.619174480
   7.99999982E-02  0.588102341
   9.09999982E-02  0.538945496
  0.101999998      0.470532864
  0.112999998      0.380826831
  0.123999998      0.268952221
  0.135000005      0.135219052
  0.145999998      -2.10338533E-02
  0.157000005     -0.199435875
  0.167999998     -0.397284806
  0.179000005     -0.612522721
  0.189999998     -0.843180060
  0.201000005      -1.08476830
  0.211999997      -1.33244038
  0.223000005      -1.58197689
  0.233999997      -1.82724690
  0.245000005      -2.06139588
  0.256000012      -2.27871156
  0.266999990      -2.47256541
  0.277999997      -2.63575172
  0.289000005      -2.76261568
  0.300000012      -2.84722209
  0.310999990      -2.88304186
  0.321999997      -2.86594462
  0.333000004      -2.79313254
  0.344000012      -2.66121697
  0.354999989      -2.46891236
  0.365999997      -2.21761990
  0.377000004      -1.90862584
  0.388000011      -1.54429972
  0.398999989      -1.13036668
  0.409999996     -0.673846364
  0.421000004     -0.181888893
  0.432000011      0.336183429
  0.442999989      0.869057894
  0.453999996       1.40553379
  0.465000004       1.93409336
  0.476000011       2.44183207
  0.486999989       2.91595435
  0.497999996       3.34495640
  0.509000003       3.71745396
  0.519999981       4.02250957
  0.531000018       4.25180721
  0.541999996       4.39902401
  0.552999973       4.45861340
  0.564000010       4.42813396
  0.574999988       4.30877972
  0.586000025       4.10252714
  0.597000003       3.81348109
  0.607999980       3.45039940
  0.619000018       3.02328539
  0.629999995       2.54201174
  0.640999973       2.02006507
  0.652000010       1.47273147
  0.662999988      0.913058221
  0.674000025      0.354960680
  0.685000002     -0.185801819
  0.695999980     -0.696646869
  0.707000017      -1.16729760
  0.717999995      -1.58647358
  0.728999972      -1.94565690
  0.740000010      -2.24059176
  0.750999987      -2.46720695
  0.762000024      -2.62307501
  0.773000002      -2.71047044
  0.783999979      -2.73279119
  0.795000017      -2.69333649
  0.805999994      -2.59878182
  0.816999972      -2.45761681
  0.828000009      -2.27705455
  0.838999987      -2.06526709
  0.850000024      -1.83206379
  0.861000001      -1.58574665
  0.871999979      -1.33340716
  0.883000016      -1.08289659
  0.893999994     -0.841140747
  0.904999971     -0.612772763
  0.916000009     -0.401822448
  0.926999986     -0.212073788
  0.938000023      -4.54775319E-02
  0.949000001       9.74489227E-02
  0.959999979      0.216133565
  0.971000016      0.310731411
  0.981999993      0.383068323
  0.992999971      0.435098767
   1.00399995      0.468219370
   1.01499999      0.484860152
   1.02600002      0.488086641
   1.03699994      0.479842365
   1.04799998      0.462076575
   1.05900002      0.437711179
   1.07000005      0.408712059
   1.08099997      0.376101583
   1.09200001      0.341841727
   1.10300004      0.307626665
   1.11399996      0.273717821
   1.12500000      0.240908772
   1.13600004      0.210502371
   1.14699996      0.182377800
   1.15799999      0.156289995
   1.16900003      0.133126542
   1.17999995      0.112895250
   1.19099998       9.46685001E-02
   1.20200002       7.86861926E-02
   1.21300006       6.53476417E-02
   1.22399998       5.37938848E-02
   1.23500001       4.36504297E-02
   1.24600005       3.54386456E-02
   1.25699997       2.87345853E-02
   1.26800001       2.27899067E-02
   1.27900004       1.79156810E-02
   1.28999996       1.41716637E-02
   1.30100000       1.08687980E-02
   1.31200004       8.09313450E-03
   1.32299995       6.19795360E-03
   1.33399999       4.58981330E-03
   1.34500003       3.02967872E-03
   1.35599995       2.07459670E-03
   1.36699998       1.43704936E-03
   1.37800002       5.39838336E-04
   1.38900006      -8.36140607E-05
