 -0.959999979       0.00000000
 -0.925000012       0.00000000
 -0.889999986       2.50832266E-09
 -0.855000019       2.58471893E-08
 -0.819999993       1.16054011E-07
 -0.785000026       3.14121024E-07
 -0.750000000       5.96726693E-07
 -0.714999974       1.06913160E-06
 -0.680000007       2.34136746E-06
 -0.644999981       5.29280578E-06
 -0.610000014       1.04816017E-05
 -0.574999988       1.87032874E-05
 -0.540000021       3.20337895E-05
 -0.504999995       5.30758443E-05
 -0.469999999       8.33088925E-05
 -0.435000002       1.22740079E-04
 -0.400000006       1.69415754E-04
 -0.365000010       2.17533845E-04
 -0.330000013       2.56722706E-04
 -0.294999987       2.73318437E-04
 -0.259999990       2.51740683E-04
 -0.224999994       1.77336042E-04
 -0.189999998       4.21708610E-05
 -0.155000001      -1.50171647E-04
 -0.119999997      -3.82761413E-04
  -8.50000009E-02  -6.21537503E-04
  -5.00000007E-02  -8.06713826E-04
  -1.49999997E-02  -8.41881614E-04
   1.99999996E-02  -5.83958230E-04
   5.49999997E-02   1.55286325E-04
   9.00000036E-02   1.57008471E-03
  0.125000000       3.75644863E-03
  0.159999996       6.53595524E-03
  0.194999993       9.23435949E-03
  0.230000004       1.04862703E-02
  0.264999986       8.17902759E-03
  0.300000012      -3.46538756E-04
  0.335000008      -1.77730210E-02
  0.370000005      -4.59927022E-02
  0.405000001      -8.51545110E-02
  0.439999998     -0.132828355
  0.474999994     -0.183583498
  0.509999990     -0.229225695
  0.545000017     -0.259806395
  0.579999983     -0.265331298
  0.615000010     -0.237887800
  0.649999976     -0.173749238
  0.685000002      -7.49494359E-02
  0.720000029       5.01299575E-02
  0.754999995      0.187450543
  0.790000021      0.319298357
  0.824999988      0.427236229
  0.860000014      0.495437860
  0.894999981      0.513679564
  0.930000007      0.479303002
  0.964999974      0.397682786
   1.00000000      0.281105161
   1.03499997      0.146356851
   1.07000005       1.16131762E-02
   1.10500002     -0.106677212
   1.13999999     -0.196277276
   1.17499995     -0.250599205
   1.21000004     -0.268968374
   1.24500000     -0.255851001
   1.27999997     -0.219347075
   1.31500006     -0.169317469
   1.35000002     -0.115515321
   1.38499999      -6.60458654E-02
   1.41999996      -2.63864622E-02
   1.45500004       9.30049340E-04
   1.49000001       1.60128847E-02
   1.52499998       2.08742917E-02
   1.55999994       1.85210295E-02
   1.59500003       1.21330209E-02
   1.63000000       4.48113820E-03
