 -0.959999979       0.00000000
 -0.925000012       0.00000000
 -0.889999986      -6.90793690E-12
 -0.855000019      -1.77453752E-09
 -0.819999993      -1.07468603E-08
 -0.785000026       1.93309937E-08
 -0.750000000       6.36805169E-08
 -0.714999974      -1.33607870E-07
 -0.680000007       9.85787594E-08
 -0.644999981       1.19695073E-07
 -0.610000014      -6.06765298E-07
 -0.574999988       5.39441260E-07
 -0.540000021       4.54528845E-07
 -0.504999995       1.19181504E-06
 -0.469999999      -6.12494250E-06
 -0.435000002       4.22360699E-06
 -0.400000006      -5.67846246E-06
 -0.365000010       2.17471879E-05
 -0.330000013      -1.96247074E-05
 -0.294999987      -9.33610954E-06
 -0.259999990       4.47418424E-05
 -0.224999994      -5.18684574E-05
 -0.189999998       5.09335950E-06
 -0.155000001       5.77717256E-05
 -0.119999997      -5.11743347E-05
  -8.50000009E-02  -3.83054576E-05
  -5.00000007E-02   4.76732494E-05
  -1.49999997E-02   8.19561228E-06
   1.99999996E-02   3.36648118E-05
   5.49999997E-02  -1.10237961E-04
   9.00000036E-02   8.84032124E-05
  0.125000000       7.67003148E-05
  0.159999996      -1.75383262E-04
  0.194999993       6.08147730E-07
  0.230000004       2.04450509E-04
  0.264999986      -7.18429728E-05
  0.300000012      -1.76168702E-04
  0.335000008       6.71954112E-05
  0.370000005       1.48008825E-04
  0.405000001      -4.58223185E-05
  0.439999998      -1.00895886E-04
  0.474999994       3.05112899E-05
  0.509999990       2.66765255E-05
  0.545000017      -9.96898525E-05
  0.579999983       9.72967609E-05
  0.615000010       1.22154481E-04
  0.649999976      -7.08275620E-05
  0.685000002      -1.54433263E-04
  0.720000029       1.70634521E-05
  0.754999995       1.48714709E-04
  0.790000021      -2.53534927E-05
  0.824999988      -1.34074289E-04
  0.860000014       7.47543163E-05
  0.894999981       1.81625859E-04
  0.930000007      -8.48785785E-05
  0.964999974      -2.01020885E-04
   1.00000000       2.48826818E-05
   1.03499997       1.33646536E-04
   1.07000005       1.94667082E-05
   1.10500002      -2.99113781E-05
   1.13999999       1.36882966E-06
   1.17499995      -2.77624840E-05
   1.21000004      -3.58287834E-05
   1.24500000       1.45050672E-05
   1.27999997       3.34466058E-05
   1.31500006       5.03211368E-07
   1.35000002      -2.25578460E-05
   1.38499999       1.19885108E-05
   1.41999996       3.29140094E-05
   1.45500004      -2.97773076E-05
   1.49000001      -6.88697401E-05
   1.52499998       2.79364067E-05
   1.55999994       8.09590711E-05
   1.59500003      -7.76419165E-06
   1.63000000      -4.13774178E-05
