 -0.959999979       0.00000000
 -0.925000012       0.00000000
 -0.889999986       4.04324188E-24
 -0.855000019      -1.78605859E-14
 -0.819999993      -1.49039445E-14
 -0.785000026       1.77889482E-13
 -0.750000000       4.93230673E-13
 -0.714999974       1.22493140E-12
 -0.680000007       2.09647946E-12
 -0.644999981      -4.87858625E-12
 -0.610000014       3.97368293E-12
 -0.574999988      -1.84071491E-11
 -0.540000021      -1.30294031E-11
 -0.504999995      -3.13207758E-11
 -0.469999999      -1.39596848E-10
 -0.435000002      -3.63983531E-11
 -0.400000006       3.48545463E-11
 -0.365000010      -5.96587085E-11
 -0.330000013       6.88654134E-11
 -0.294999987       4.97068720E-10
 -0.259999990       2.33520703E-10
 -0.224999994      -4.37515246E-10
 -0.189999998       7.20665527E-10
 -0.155000001      -2.25401409E-09
 -0.119999997      -3.14467496E-09
  -8.50000009E-02  -6.48457843E-10
  -5.00000007E-02   1.49523294E-09
  -1.49999997E-02   1.89902494E-09
   1.99999996E-02   4.61213912E-09
   5.49999997E-02  -7.21283255E-10
   9.00000036E-02  -1.05377296E-09
  0.125000000       1.17431016E-08
  0.159999996      -5.52974999E-09
  0.194999993      -1.50224526E-08
  0.230000004       1.06118403E-09
  0.264999986       2.74118173E-09
  0.300000012      -1.36460256E-08
  0.335000008       1.37023826E-09
  0.370000005       2.53719001E-08
  0.405000001       1.11435101E-08
  0.439999998      -6.11592776E-09
  0.474999994      -2.11956461E-08
  0.509999990      -1.77276167E-08
  0.545000017       1.94748950E-09
  0.579999983      -8.58727223E-09
  0.615000010      -1.48668438E-08
  0.649999976       2.53328434E-08
  0.685000002       1.92053022E-08
  0.720000029      -2.86543500E-08
  0.754999995      -1.62725122E-08
  0.790000021       2.28802257E-08
  0.824999988      -2.22167063E-09
  0.860000014       5.46396262E-09
  0.894999981       4.76219917E-08
  0.930000007       3.92844299E-08
  0.964999974       1.41841490E-08
   1.00000000       1.70718870E-08
   1.03499997       5.06005415E-09
   1.07000005      -2.63046900E-08
   1.10500002      -3.52475453E-08
   1.13999999      -2.23838086E-08
   1.17499995      -1.26008253E-08
   1.21000004      -2.09560245E-08
   1.24500000      -2.64071360E-08
   1.27999997       3.14908832E-09
   1.31500006       2.58947885E-08
   1.35000002       4.14117540E-09
   1.38499999      -1.01543218E-08
   1.41999996       1.26303257E-09
   1.45500004      -9.20800769E-09
   1.49000001      -1.52816657E-08
   1.52499998       8.88714080E-09
   1.55999994      -2.11997420E-09
   1.59500003      -3.66042272E-08
   1.63000000      -1.02174562E-08
