 -0.800000012       0.00000000
 -0.788999975       0.00000000
 -0.777999997       0.00000000
 -0.767000020       0.00000000
 -0.755999982      -2.82426148E-27
 -0.745000005      -7.27196623E-14
 -0.734000027      -1.59100977E-12
 -0.722999990       1.20139870E-11
 -0.712000012      -3.03572514E-11
 -0.700999975      -4.43462584E-12
 -0.689999998       1.71164888E-10
 -0.679000020      -2.42435461E-10
 -0.667999983      -3.38807704E-10
 -0.657000005       1.16123322E-09
 -0.646000028      -8.38450212E-11
 -0.634999990      -2.98083558E-09
 -0.624000013       2.29965424E-09
 -0.612999976       4.84670792E-09
 -0.601999998      -7.01557523E-09
 -0.591000021      -4.04980494E-09
 -0.579999983       1.19581474E-08
 -0.569000006      -3.95870003E-09
 -0.558000028      -9.75221592E-09
 -0.546999991       2.43877523E-08
 -0.536000013      -9.52034096E-09
 -0.524999976      -5.96991185E-08
 -0.513999999       4.74520974E-08
 -0.503000021       1.00073073E-07
 -0.492000014      -8.56605595E-08
 -0.481000006      -1.08214721E-07
 -0.469999999       9.61603419E-08
 -0.458999991       2.18258833E-08
 -0.448000014      -8.34217460E-08
 -0.437000006       1.83430046E-07
 -0.425999999       9.89260442E-08
 -0.414999992      -3.95121020E-07
 -0.404000014      -1.41935033E-07
 -0.393000007       3.99927217E-07
 -0.381999999       4.62806469E-08
 -0.370999992      -1.58002820E-07
 -0.360000014       3.18179730E-07
 -0.349000007      -9.66185283E-08
 -0.338000000      -6.86189196E-07
 -0.326999992       3.38982318E-07
 -0.316000015       8.33653530E-07
 -0.305000007      -6.70936288E-07
 -0.294000000      -1.09397592E-06
 -0.282999992      -6.30466772E-08
 -0.272000015      -7.01579268E-07
 -0.261000007      -1.67863027E-06
 -0.250000000      -7.67518259E-07
 -0.238999993      -1.08775259E-06
 -0.228000000      -3.54283270E-06
 -0.216999993      -4.22417043E-06
 -0.206000000      -3.80075744E-06
 -0.194999993      -5.75114973E-06
 -0.184000000      -8.43891121E-06
 -0.172999993      -1.04619103E-05
 -0.162000000      -1.42166837E-05
 -0.150999993      -1.91338931E-05
 -0.140000001      -2.36423548E-05
 -0.128999993      -3.05179929E-05
 -0.118000001      -4.04835446E-05
 -0.107000001      -5.07285113E-05
  -9.60000008E-02  -6.30487266E-05
  -8.50000009E-02  -8.05452946E-05
  -7.40000010E-02  -1.00803234E-04
  -6.30000010E-02  -1.22748548E-04
  -5.20000011E-02  -1.49771993E-04
  -4.10000011E-02  -1.81902709E-04
  -2.99999993E-02  -2.17110835E-04
  -1.89999994E-02  -2.57315754E-04
  -8.00000038E-03  -3.03398381E-04
   3.00000003E-03  -3.52142408E-04
   1.40000004E-02  -4.02409525E-04
   2.50000004E-02  -4.55164554E-04
   3.59999985E-02  -5.08041470E-04
   4.69999984E-02  -5.56602550E-04
   5.79999983E-02  -5.97453327E-04
   6.89999983E-02  -6.26756635E-04
   7.99999982E-02  -6.38324302E-04
   9.09999982E-02  -6.23712898E-04
  0.101999998      -5.73941914E-04
  0.112999998      -4.80559160E-04
  0.123999998      -3.33005184E-04
  0.135000005      -1.17903772E-04
  0.145999998       1.76696412E-04
  0.157000005       5.61834488E-04
  0.167999998       1.05152151E-03
  0.179000005       1.65859656E-03
  0.189999998       2.39059469E-03
  0.201000005       3.25437519E-03
  0.211999997       4.25600028E-03
  0.223000005       5.39349439E-03
  0.233999997       6.65716687E-03
  0.245000005       8.03266838E-03
  0.256000012       9.49631352E-03
  0.266999990       1.10121556E-02
  0.277999997       1.25337821E-02
  0.289000005       1.40016899E-02
  0.300000012       1.53412148E-02
  0.310999990       1.64655130E-02
  0.321999997       1.72743835E-02
  0.333000004       1.76511910E-02
  0.344000012       1.74668934E-02
  0.354999989       1.65834241E-02
  0.365999997       1.48525247E-02
  0.377000004       1.21201631E-02
  0.388000011       8.23402777E-03
  0.398999989       3.04479129E-03
  0.409999996      -3.59090697E-03
  0.421000004      -1.17991352E-02
  0.432000011      -2.16795038E-02
  0.442999989      -3.33022065E-02
  0.453999996      -4.67016920E-02
  0.465000004      -6.18656129E-02
  0.476000011      -7.87269697E-02
  0.486999989      -9.71597582E-02
  0.497999996     -0.116972439
  0.509000003     -0.137901515
  0.519999981     -0.159610748
  0.531000018     -0.181692883
  0.541999996     -0.203669474
  0.552999973     -0.224994510
  0.564000010     -0.245065272
  0.574999988     -0.263234347
  0.586000025     -0.278822660
  0.597000003     -0.291138709
  0.607999980     -0.299499601
  0.619000018     -0.303251326
  0.629999995     -0.301795065
  0.640999973     -0.294615895
  0.652000010     -0.281305552
  0.662999988     -0.261583984
  0.674000025     -0.235324562
  0.685000002     -0.202571690
  0.695999980     -0.163550600
  0.707000017     -0.118677370
  0.717999995      -6.85624331E-02
  0.728999972      -1.40009122E-02
  0.740000010       4.40421365E-02
  0.750999987      0.104449488
  0.762000024      0.165980563
  0.773000002      0.227307990
  0.783999979      0.287054390
  0.795000017      0.343833625
  0.805999994      0.396297961
  0.816999972      0.443182647
  0.828000009      0.483347028
  0.838999987      0.515815854
  0.850000024      0.539812803
  0.861000001      0.554784179
  0.871999979      0.560419321
  0.883000016      0.556663215
  0.893999994      0.543713689
  0.904999971      0.522008538
  0.916000009      0.492211431
  0.926999986      0.455188692
  0.938000023      0.411972314
  0.949000001      0.363720179
  0.959999979      0.311678201
  0.971000016      0.257137656
  0.981999993      0.201388896
  0.992999971      0.145682201
   1.00399995       9.11946446E-02
   1.01499999       3.89954336E-02
   1.02600002      -9.98351350E-03
   1.03699994      -5.49635924E-02
   1.04799998      -9.53286588E-02
   1.05900002     -0.130633816
   1.07000005     -0.160607547
   1.08099997     -0.185141802
   1.09200001     -0.204276100
   1.10300004     -0.218182981
   1.11399996     -0.227151334
   1.12500000     -0.231564090
   1.13600004     -0.231874034
   1.14699996     -0.228582397
   1.15799999     -0.222218677
   1.16900003     -0.213320747
   1.17999995     -0.202416167
   1.19099998     -0.190007553
   1.20200002     -0.176562324
   1.21300006     -0.162505046
   1.22399998     -0.148210153
   1.23500001     -0.133997366
   1.24600005     -0.120132595
   1.25699997     -0.106829748
   1.26800001      -9.42510813E-02
   1.27900004      -8.25114474E-02
   1.28999996      -7.16860741E-02
   1.30100000      -6.18149117E-02
   1.31200004      -5.29060103E-02
   1.32299995      -4.49435897E-02
   1.33399999      -3.78949977E-02
   1.34500003      -3.17120478E-02
   1.35599995      -2.63343100E-02
   1.36699998      -2.16959268E-02
   1.37800002      -1.77291036E-02
   1.38900006      -1.43652791E-02
