 -0.959999979       0.00000000
 -0.925000012       0.00000000
 -0.889999986       4.32359950E-30
 -0.855000019       8.64719900E-30
 -0.819999993       1.29707981E-29
 -0.785000026       1.90847108E-13
 -0.750000000       5.30752092E-13
 -0.714999974      -1.03466313E-12
 -0.680000007      -1.93711627E-11
 -0.644999981       5.68914429E-11
 -0.610000014       1.91307230E-11
 -0.574999988      -2.70129023E-11
 -0.540000021       7.19687226E-11
 -0.504999995       1.53109928E-10
 -0.469999999      -1.28101349E-11
 -0.435000002       1.84225316E-10
 -0.400000006      -4.91315544E-10
 -0.365000010       8.02237499E-10
 -0.330000013      -1.77693471E-09
 -0.294999987      -3.07738346E-09
 -0.259999990       9.94937022E-10
 -0.224999994       6.07057071E-09
 -0.189999998      -6.54862164E-10
 -0.155000001       3.39318817E-09
 -0.119999997       8.66112682E-10
  -8.50000009E-02  -1.00125810E-08
  -5.00000007E-02  -7.80684184E-10
  -1.49999997E-02  -6.65738487E-09
   1.99999996E-02  -9.16473386E-09
   5.49999997E-02   2.10119762E-08
   9.00000036E-02   1.07217071E-08
  0.125000000      -3.45634774E-08
  0.159999996       5.95280181E-09
  0.194999993       1.40372105E-08
  0.230000004      -1.16729799E-08
  0.264999986       3.77020406E-08
  0.300000012       2.61233861E-08
  0.335000008      -6.72347156E-08
  0.370000005      -2.52210413E-08
  0.405000001       1.88938714E-08
  0.439999998      -6.90533639E-08
  0.474999994      -2.09009432E-08
  0.509999990       8.80223112E-08
  0.545000017      -2.67636913E-09
  0.579999983      -2.69398583E-08
  0.615000010       4.09754399E-08
  0.649999976      -2.17096190E-08
  0.685000002      -5.17203453E-08
  0.720000029       3.30454029E-08
  0.754999995      -4.35201292E-10
  0.790000021      -4.84575864E-08
  0.824999988       1.88733349E-08
  0.860000014       2.93947373E-08
  0.894999981      -5.94502048E-09
  0.930000007       1.73292136E-08
  0.964999974      -2.68180234E-09
   1.00000000      -4.61778065E-08
   1.03499997       4.19153778E-08
   1.07000005       6.95319784E-08
   1.10500002      -2.20515748E-08
   1.13999999       2.74591780E-08
   1.17499995       7.58277920E-08
   1.21000004      -3.14591588E-08
   1.24500000      -4.80034039E-08
   1.27999997       1.28233788E-08
   1.31500006      -4.63104790E-08
   1.35000002      -6.54048762E-08
   1.38499999       1.92079348E-08
   1.41999996       1.52028307E-10
   1.45500004      -4.22718109E-08
   1.49000001       1.10360494E-08
   1.52499998       1.11485638E-08
   1.55999994      -3.28835341E-08
   1.59500003      -3.96580724E-09
   1.63000000       2.69496994E-08
