 -0.959999979       0.00000000
 -0.925000012       0.00000000
 -0.889999986      -9.14274485E-24
 -0.855000019       6.42744924E-09
 -0.819999993       1.02968144E-07
 -0.785000026       2.40418728E-07
 -0.750000000       2.50851542E-07
 -0.714999974       4.90146419E-07
 -0.680000007       1.62888693E-06
 -0.644999981       3.63729032E-06
 -0.610000014       6.36296954E-06
 -0.574999988       1.08772028E-05
 -0.540000021       1.89035400E-05
 -0.504999995       3.17296108E-05
 -0.469999999       5.02780713E-05
 -0.435000002       7.46418445E-05
 -0.400000006       1.03530801E-04
 -0.365000010       1.35427224E-04
 -0.330000013       1.69157443E-04
 -0.294999987       2.03676609E-04
 -0.259999990       2.42661044E-04
 -0.224999994       3.04883957E-04
 -0.189999998       4.35724767E-04
 -0.155000001       7.20549608E-04
 -0.119999997       1.30208069E-03
  -8.50000009E-02   2.39458820E-03
  -5.00000007E-02   4.28378629E-03
  -1.49999997E-02   7.30203511E-03
   1.99999996E-02   1.17639108E-02
   5.49999997E-02   1.78512558E-02
   9.00000036E-02   2.54581831E-02
  0.125000000       3.40298414E-02
  0.159999996       4.24503759E-02
  0.194999993       4.90534864E-02
  0.230000004       5.18142246E-02
  0.264999986       4.87213284E-02
  0.300000012       3.82611491E-02
  0.335000008       1.98932756E-02
  0.370000005      -5.62869851E-03
  0.405000001      -3.62084880E-02
  0.439999998      -6.86535910E-02
  0.474999994      -9.91433263E-02
  0.509999990     -0.123797625
  0.545000017     -0.139223322
  0.579999983     -0.142951429
  0.615000010     -0.133742258
  0.649999976     -0.111774124
  0.685000002      -7.87136108E-02
  0.720000029      -3.76350395E-02
  0.754999995       7.25223124E-03
  0.790000021       5.10918424E-02
  0.824999988       8.90515745E-02
  0.860000014      0.117061786
  0.894999981      0.132451668
  0.930000007      0.134327754
  0.964999974      0.123605572
   1.00000000      0.102703556
   1.03499997       7.50109106E-02
   1.07000005       4.42924201E-02
   1.10500002       1.41671672E-02
   1.13999999      -1.22721642E-02
   1.17499995      -3.27054672E-02
   1.21000004      -4.57442254E-02
   1.24500000      -5.10331392E-02
   1.27999997      -4.92637381E-02
   1.31500006      -4.20324802E-02
   1.35000002      -3.15071531E-02
   1.38499999      -1.99505314E-02
   1.41999996      -9.24079120E-03
   1.45500004      -5.61721448E-04
   1.49000001       5.63141285E-03
   1.52499998       9.40487720E-03
   1.55999994       1.10549713E-02
   1.59500003       1.09098377E-02
   1.63000000       9.31028649E-03
