 -0.959999979       0.00000000
 -0.925000012       1.18841319E-06
 -0.889999986       1.24818716E-05
 -0.855000019      -4.90181719E-06
 -0.819999993       1.44862242E-05
 -0.785000026       5.94249686E-05
 -0.750000000       6.74800831E-05
 -0.714999974       2.02410039E-04
 -0.680000007       3.02691973E-04
 -0.644999981       2.14545245E-04
 -0.610000014       7.01385026E-04
 -0.574999988       1.64846599E-03
 -0.540000021       1.64268853E-03
 -0.504999995       1.36555335E-03
 -0.469999999       2.23541702E-03
 -0.435000002       2.40130280E-03
 -0.400000006       8.98290949E-04
 -0.365000010       9.08270420E-04
 -0.330000013       4.20384668E-03
 -0.294999987       1.24333017E-02
 -0.259999990       3.51004526E-02
 -0.224999994       8.55003670E-02
 -0.189999998      0.173964456
 -0.155000001      0.311878830
 -0.119999997      0.506937265
  -8.50000009E-02  0.744899571
  -5.00000007E-02  0.982809126
  -1.49999997E-02   1.15224290
   1.99999996E-02   1.15844548
   5.49999997E-02  0.894918263
   9.00000036E-02  0.283516169
  0.125000000     -0.687977195
  0.159999996      -1.94383848
  0.194999993      -3.30800414
  0.230000004      -4.52054930
  0.264999986      -5.29593945
  0.300000012      -5.39332056
  0.335000008      -4.67233467
  0.370000005      -3.13339424
  0.405000001     -0.928068936
  0.439999998       1.67333555
  0.474999994       4.33438158
  0.509999990       6.70153809
  0.545000017       8.45223427
  0.579999983       9.33928490
  0.615000010       9.21671200
  0.649999976       8.05051422
  0.685000002       5.92403507
  0.720000029       3.03408122
  0.754999995     -0.323080182
  0.790000021      -3.77063608
  0.824999988      -6.87746954
  0.860000014      -9.19990063
  0.894999981      -10.3497629
  0.930000007      -10.0855818
  0.964999974      -8.40070343
   1.00000000      -5.57126141
   1.03499997      -2.13322186
   1.07000005       1.22938430
   1.10500002       3.86746264
   1.13999999       5.35372877
   1.17499995       5.59462976
   1.21000004       4.82618570
   1.24500000       3.49600387
   1.27999997       2.07972741
   1.31500006      0.917399764
   1.35000002      0.141554132
   1.38499999     -0.289492875
   1.41999996     -0.492772847
   1.45500004     -0.562231600
   1.49000001     -0.525504351
   1.52499998     -0.370004267
   1.55999994     -0.108180128
   1.59500003      0.173777983
   1.63000000      0.329314798
