 -0.800000012       0.00000000
 -0.788999975       0.00000000
 -0.777999997       0.00000000
 -0.767000020      -8.07664888E-23
 -0.755999982      -5.68369738E-15
 -0.745000005      -1.70510917E-14
 -0.734000027      -1.59143518E-13
 -0.722999990       4.54696027E-14
 -0.712000012       4.77430595E-13
 -0.700999975      -5.22900137E-13
 -0.689999998      -2.15980489E-12
 -0.679000020       1.38682230E-12
 -0.667999983       3.47842263E-12
 -0.657000005      -3.61483152E-12
 -0.646000028       1.61416963E-12
 -0.634999990       4.66063169E-12
 -0.624000013      -1.57097391E-11
 -0.612999976      -2.61450215E-12
 -0.601999998       3.23061300E-11
 -0.591000021       9.75322080E-12
 -0.579999983      -7.68208552E-11
 -0.569000006      -4.31965742E-13
 -0.558000028       1.42888146E-10
 -0.546999991      -6.08155609E-11
 -0.536000013      -2.39783832E-10
 -0.524999976       1.71988659E-10
 -0.513999999       4.76271078E-10
 -0.503000021      -3.80557641E-10
 -0.492000014      -8.50531201E-10
 -0.481000006       6.84521773E-10
 -0.469999999       1.08028897E-09
 -0.458999991      -1.02949949E-09
 -0.448000014      -7.06483649E-10
 -0.437000006       1.75542114E-09
 -0.425999999       3.29495181E-10
 -0.414999992      -2.96177460E-09
 -0.404000014      -1.31613986E-09
 -0.393000007       2.64589728E-09
 -0.381999999       3.20753757E-09
 -0.370999992       1.48769630E-09
 -0.360000014      -4.50701299E-09
 -0.349000007      -4.54484361E-09
 -0.338000000       9.44378087E-09
 -0.326999992       1.60700797E-09
 -0.316000015      -2.69377018E-08
 -0.305000007       6.84521662E-10
 -0.294000000       5.62548905E-08
 -0.282999992      -2.53399857E-09
 -0.272000015      -8.51816822E-08
 -0.261000007       2.51013290E-08
 -0.250000000       1.08532554E-07
 -0.238999993      -7.57494618E-08
 -0.228000000      -1.06031479E-07
 -0.216999993       1.30937039E-07
 -0.206000000       4.14209076E-08
 -0.194999993      -1.97651588E-07
 -0.184000000       7.85007899E-08
 -0.172999993       2.63434657E-07
 -0.162000000      -2.15775401E-07
 -0.150999993      -2.66096009E-07
 -0.140000001       3.50033503E-07
 -0.128999993       1.82596352E-07
 -0.118000001      -4.19417916E-07
 -0.107000001      -3.72115458E-08
  -9.60000008E-02   3.17413338E-07
  -8.50000009E-02  -1.23512066E-07
  -7.40000010E-02  -8.39034353E-09
  -6.30000010E-02   3.37219205E-07
  -5.20000011E-02  -1.73524199E-07
  -4.10000011E-02  -4.71507803E-07
  -2.99999993E-02   1.02319731E-07
  -1.89999994E-02   3.87691131E-07
  -8.00000038E-03   6.68985365E-08
   3.00000003E-03  -2.16424212E-07
   1.40000004E-02  -2.47922628E-07
   2.50000004E-02   3.15149350E-07
   3.59999985E-02   4.31993840E-07
   4.69999984E-02  -8.27640065E-07
   5.79999983E-02  -6.93789332E-07
   6.89999983E-02   7.43899022E-07
   7.99999982E-02   2.63798427E-07
   9.09999982E-02   1.53559796E-07
  0.101999998       9.82040319E-07
  0.112999998      -1.00066029E-06
  0.123999998      -2.13998101E-06
  0.135000005       1.47886772E-06
  0.145999998       2.37362747E-06
  0.157000005      -1.21784353E-06
  0.167999998      -1.57170609E-06
  0.179000005      -9.26379151E-09
  0.189999998       7.60154194E-07
  0.201000005       2.58515320E-06
  0.211999997       9.00861153E-07
  0.223000005      -3.16902242E-06
  0.233999997      -1.56872625E-06
  0.245000005       3.99447373E-07
  0.256000012      -1.41568069E-06
  0.266999990       3.42147951E-06
  0.277999997       4.36559867E-06
  0.289000005      -7.58158421E-06
  0.300000012      -5.10331347E-06
  0.310999990       9.47658737E-06
  0.321999997       4.16972171E-06
  0.333000004      -7.59490058E-06
  0.344000012      -4.29303827E-06
  0.354999989      -2.01364230E-07
  0.365999997       1.76024434E-06
  0.377000004       9.10689414E-06
  0.388000011       3.65554979E-06
  0.398999989      -1.12397311E-05
  0.409999996      -1.05324204E-06
  0.421000004       7.92303763E-06
  0.432000011      -1.10411947E-05
  0.442999989      -5.85799489E-06
  0.453999996       1.54655227E-05
  0.465000004      -9.43312159E-07
  0.476000011      -7.05167440E-06
  0.486999989       1.65161600E-05
  0.497999996       1.25890594E-07
  0.509000003      -2.25027761E-05
  0.519999981       6.71094267E-06
  0.531000018       1.05817335E-05
  0.541999996      -2.16068056E-05
  0.552999973       3.23070685E-06
  0.564000010       3.29937975E-05
  0.574999988      -3.38139853E-06
  0.586000025      -1.83046122E-05
  0.597000003       4.21091045E-06
  0.607999980      -7.62010768E-06
  0.619000018      -1.30137159E-05
  0.629999995       1.75589739E-05
  0.640999973       1.42349008E-05
  0.652000010      -9.11373536E-06
  0.662999988      -4.10104076E-06
  0.674000025      -8.71025350E-06
  0.685000002      -5.46881893E-06
  0.695999980       1.99154110E-05
  0.707000017       4.52534067E-07
  0.717999995      -2.24841333E-05
  0.728999972       1.47299961E-05
  0.740000010       2.18355071E-05
  0.750999987      -2.43537852E-05
  0.762000024      -1.53663295E-05
  0.773000002       2.33141891E-05
  0.783999979       6.00454268E-06
  0.795000017      -1.39387721E-05
  0.805999994       3.66299741E-06
  0.816999972       8.61702392E-06
  0.828000009      -7.27291263E-06
  0.838999987      -1.15512958E-05
  0.850000024       9.89030127E-07
  0.861000001       1.16498813E-05
  0.871999979      -4.53298389E-06
  0.883000016      -2.06982331E-05
  0.893999994       8.89295916E-06
  0.904999971       2.88890169E-05
  0.916000009      -5.07961113E-06
  0.926999986      -1.57883678E-05
  0.938000023       8.42691043E-06
  0.949000001      -4.80959397E-06
  0.959999979      -1.69341547E-05
  0.971000016       1.41677583E-05
  0.981999993       2.25102631E-05
  0.992999971      -9.73049282E-07
   1.00399995      -1.01948690E-05
   1.01499999      -1.66126538E-05
   1.02600002      -1.18457665E-05
   1.03699994       1.63927889E-05
   1.04799998       1.28707325E-05
   1.05900002      -8.67255039E-06
   1.07000005       7.28559462E-06
   1.08099997       9.85826432E-07
   1.09200001      -3.25930123E-05
   1.10300004       3.97583290E-06
   1.11399996       4.41482589E-05
   1.12500000      -7.66530775E-06
   1.13600004      -3.12525008E-05
   1.14699996       1.99190927E-05
   1.15799999       1.11958325E-05
   1.16900003      -3.16587721E-05
   1.17999995       2.46106811E-06
   1.19099998       3.11261429E-05
   1.20200002      -1.10088986E-05
   1.21300006      -2.35555763E-05
   1.22399998       1.52435950E-05
   1.23500001       2.06014574E-05
   1.24600005      -8.61014178E-06
   1.25699997      -1.78859664E-05
   1.26800001      -2.83409759E-06
   1.27900004       7.78666708E-06
   1.28999996       1.73469698E-06
   1.30100000       7.87532770E-07
   1.31200004       1.25019278E-05
   1.32299995       2.45947581E-06
   1.33399999      -2.27225028E-05
   1.34500003      -1.41773071E-05
   1.35599995       1.14866889E-05
   1.36699998       1.18069365E-05
   1.37800002       5.18331217E-06
   1.38900006       6.17177875E-06
