 -0.800000012       0.00000000
 -0.788999975       0.00000000
 -0.777999997       0.00000000
 -0.767000020       1.52659341E-09
 -0.755999982      -1.95548333E-09
 -0.745000005       5.46737233E-09
 -0.734000027      -1.96424779E-08
 -0.722999990       2.35658000E-08
 -0.712000012      -7.57000596E-09
 -0.700999975      -6.52856746E-09
 -0.689999998      -5.35505951E-09
 -0.679000020       4.10773993E-08
 -0.667999983      -6.49919869E-08
 -0.657000005       1.05664128E-07
 -0.646000028       1.68203329E-07
 -0.634999990      -7.43725707E-07
 -0.624000013       4.25708123E-07
 -0.612999976       5.80442133E-07
 -0.601999998      -1.04380922E-06
 -0.591000021       4.21689919E-07
 -0.579999983       6.23674566E-07
 -0.569000006       2.81808724E-07
 -0.558000028      -1.76012509E-06
 -0.546999991       4.76355702E-08
 -0.536000013       3.83957331E-06
 -0.524999976      -5.38342101E-06
 -0.513999999      -1.30436365E-06
 -0.503000021       1.00546231E-05
 -0.492000014      -9.40093923E-06
 -0.481000006       3.61757543E-06
 -0.469999999       7.41231725E-06
 -0.458999991      -1.89530092E-05
 -0.448000014       1.01963524E-05
 -0.437000006       1.93158830E-05
 -0.425999999      -2.33979172E-05
 -0.414999992      -1.27969197E-05
 -0.404000014       3.38793325E-05
 -0.393000007      -3.67901303E-05
 -0.381999999       2.72099915E-05
 -0.370999992       2.12745144E-05
 -0.360000014      -3.79706798E-05
 -0.349000007      -4.87996549E-05
 -0.338000000       9.72871931E-05
 -0.326999992      -5.31850765E-06
 -0.316000015      -4.66381207E-05
 -0.305000007       9.23765183E-05
 -0.294000000      -1.30654036E-04
 -0.282999992      -1.57648697E-04
 -0.272000015       2.55102583E-04
 -0.261000007       2.03184958E-04
 -0.250000000      -4.27758845E-04
 -0.238999993       6.74994881E-05
 -0.228000000       2.85637187E-04
 -0.216999993      -9.29573434E-05
 -0.206000000      -1.68149534E-04
 -0.194999993       1.97126850E-04
 -0.184000000      -5.33209641E-05
 -0.172999993      -2.16443252E-04
 -0.162000000       1.24725440E-04
 -0.150999993       2.23303490E-04
 -0.140000001      -3.35319375E-04
 -0.128999993      -7.86220044E-05
 -0.118000001       9.12950873E-06
 -0.107000001       3.87201289E-05
  -9.60000008E-02   8.32963677E-04
  -8.50000009E-02   1.85807236E-04
  -7.40000010E-02  -1.22553948E-03
  -6.30000010E-02  -4.42247750E-04
  -5.20000011E-02   9.61509591E-04
  -4.10000011E-02   4.87451907E-05
  -2.99999993E-02  -7.17958319E-04
  -1.89999994E-02   7.54442648E-04
  -8.00000038E-03   6.58044883E-04
   3.00000003E-03  -8.83881235E-04
   1.40000004E-02  -3.31044663E-04
   2.50000004E-02   3.75318865E-04
   3.59999985E-02  -8.42652167E-04
   4.69999984E-02   8.01786431E-04
   5.79999983E-02   6.78677636E-04
   6.89999983E-02  -2.09049831E-04
   7.99999982E-02  -2.73707759E-04
   9.09999982E-02  -4.28655330E-04
  0.101999998      -1.19681889E-03
  0.112999998       1.02198264E-03
  0.123999998       2.29848409E-03
  0.135000005      -1.79976539E-03
  0.145999998      -2.15008156E-03
  0.157000005       3.26357759E-03
  0.167999998       3.13747791E-04
  0.179000005      -2.75281770E-03
  0.189999998      -7.77674722E-05
  0.201000005       3.09771253E-03
  0.211999997      -1.68902881E-03
  0.223000005      -2.33689207E-03
  0.233999997       2.74388795E-03
  0.245000005       2.77311564E-03
  0.256000012      -3.82518931E-03
  0.266999990      -2.79454724E-03
  0.277999997       3.41513869E-03
  0.289000005       1.65574264E-03
  0.300000012      -2.03496381E-03
  0.310999990      -2.85299291E-04
  0.321999997       1.74054981E-03
  0.333000004      -1.38748367E-03
  0.344000012      -8.89412477E-04
  0.354999989       1.67740439E-03
  0.365999997       9.70746507E-04
  0.377000004      -1.60138926E-03
  0.388000011      -3.68111359E-04
  0.398999989       9.49165144E-04
  0.409999996      -1.02224271E-03
  0.421000004      -1.16381992E-03
  0.432000011       1.49556238E-03
  0.442999989       1.98812690E-03
  0.453999996      -6.66774868E-04
  0.465000004      -2.48277606E-03
  0.476000011       1.51548857E-05
  0.486999989       2.43571680E-03
  0.497999996      -8.72825389E-04
  0.509000003      -2.04596645E-03
  0.519999981       2.50188797E-03
  0.531000018       2.42528040E-03
  0.541999996      -3.74170532E-03
  0.552999973      -1.86592969E-03
  0.564000010       2.56886124E-03
  0.574999988       8.30030549E-05
  0.586000025      -1.04584941E-03
  0.597000003       2.39694398E-03
  0.607999980       8.48652155E-04
  0.619000018      -3.09471553E-03
  0.629999995      -1.57784182E-03
  0.640999973       2.38835788E-03
  0.652000010       1.87492301E-03
  0.662999988      -1.83475309E-03
  0.674000025      -2.56243302E-03
  0.685000002       2.03862227E-03
  0.695999980       3.12445825E-03
  0.707000017      -2.58502597E-03
  0.717999995      -2.63188453E-03
  0.728999972       3.39509267E-03
  0.740000010       1.65575568E-03
  0.750999987      -4.20599570E-03
  0.762000024      -9.83875361E-04
  0.773000002       4.08113655E-03
  0.783999979       5.65332361E-04
  0.795000017      -2.77719507E-03
  0.805999994       8.42554073E-05
  0.816999972       1.46974821E-03
  0.828000009      -8.69810930E-04
  0.838999987      -8.40226712E-04
  0.850000024       1.21719518E-03
  0.861000001       2.58000393E-04
  0.871999979      -1.45220105E-03
  0.883000016       6.33849355E-04
  0.893999994       2.35356879E-03
  0.904999971      -8.98181286E-04
  0.916000009      -2.88807880E-03
  0.926999986       5.97336737E-04
  0.938000023       1.98460277E-03
  0.949000001      -1.16119417E-03
  0.959999979      -1.13667874E-03
  0.971000016       1.90738600E-03
  0.981999993       1.23382988E-03
  0.992999971      -1.34012848E-03
   1.00399995      -1.02451001E-03
   1.01499999       2.06660086E-04
   1.02600002      -8.10022248E-05
   1.03699994      -1.54115100E-04
   1.04799998       9.70827183E-04
   1.05900002       1.03122520E-03
   1.07000005      -9.18602513E-04
   1.08099997      -1.13998156E-03
   1.09200001       1.28320465E-03
   1.10300004       5.05972945E-04
   1.11399996      -2.66471179E-03
   1.12500000      -3.24376975E-04
   1.13600004       3.28536215E-03
   1.14699996      -1.65156773E-04
   1.15799999      -2.55238498E-03
   1.16900003       1.78153708E-03
   1.17999995       1.72218226E-03
   1.19099998      -3.16365203E-03
   1.20200002      -1.03350275E-03
   1.21300006       2.93292128E-03
   1.22399998      -5.26210875E-04
   1.23500001      -1.98285957E-03
   1.24600005       2.69711995E-03
   1.25699997       1.87718915E-03
   1.26800001      -3.64357443E-03
   1.27900004      -2.34956597E-03
   1.28999996       2.75338953E-03
   1.30100000       2.38221791E-03
   1.31200004      -1.32964202E-03
   1.32299995      -1.94614823E-03
   1.33399999       8.94599478E-04
   1.34500003       1.95007690E-03
   1.35599995      -1.51724264E-03
   1.36699998      -2.62604281E-03
   1.37800002       2.24415422E-03
   1.38900006       2.68695946E-03
