 -0.959999979       0.00000000
 -0.925000012       0.00000000
 -0.889999986       2.10871622E-06
 -0.855000019       1.11904601E-05
 -0.819999993       2.43259055E-05
 -0.785000026       4.45783626E-05
 -0.750000000       1.03243365E-04
 -0.714999974       2.35472689E-04
 -0.680000007       4.76669607E-04
 -0.644999981       9.22692823E-04
 -0.610000014       1.73509435E-03
 -0.574999988       3.09201190E-03
 -0.540000021       5.21338591E-03
 -0.504999995       8.36583041E-03
 -0.469999999       1.27158212E-02
 -0.435000002       1.81841943E-02
 -0.400000006       2.43809205E-02
 -0.365000010       3.04740630E-02
 -0.330000013       3.50995921E-02
 -0.294999987       3.65797170E-02
 -0.259999990       3.33732851E-02
 -0.224999994       2.45919544E-02
 -0.189999998       1.06029799E-02
 -0.155000001      -6.55256305E-03
 -0.119999997      -2.34623402E-02
  -8.50000009E-02  -3.64313945E-02
  -5.00000007E-02  -4.30303290E-02
  -1.49999997E-02  -4.38159555E-02
   1.99999996E-02  -4.35546972E-02
   5.49999997E-02  -5.08762449E-02
   9.00000036E-02  -7.59429708E-02
  0.125000000     -0.126682550
  0.159999996     -0.204482123
  0.194999993     -0.300738901
  0.230000004     -0.396192968
  0.264999986     -0.464165956
  0.300000012     -0.477140635
  0.335000008     -0.415015042
  0.370000005     -0.272617340
  0.405000001      -6.35290146E-02
  0.439999998      0.181756645
  0.474999994      0.422993839
  0.509999990      0.620400488
  0.545000017      0.744633853
  0.579999983      0.782989621
  0.615000010      0.739811480
  0.649999976      0.631890357
  0.685000002      0.481546938
  0.720000029      0.310411900
  0.754999995      0.136219949
  0.790000021      -2.69518290E-02
  0.824999988     -0.166867763
  0.860000014     -0.272223383
  0.894999981     -0.333836913
  0.930000007     -0.347571701
  0.964999974     -0.317373991
   1.00000000     -0.256102979
   1.03499997     -0.182675108
   1.07000005     -0.116273008
   1.10500002      -7.00956956E-02
   1.13999999      -4.73789759E-02
   1.17499995      -4.15736064E-02
   1.21000004      -4.07759473E-02
   1.24500000      -3.42676118E-02
   1.27999997      -1.78768747E-02
   1.31500006       4.36609006E-03
   1.35000002       2.29311492E-02
   1.38499999       2.84256283E-02
   1.41999996       1.71566028E-02
   1.45500004      -6.42317766E-03
   1.49000001      -3.15796249E-02
   1.52499998      -4.63513769E-02
   1.55999994      -4.32924144E-02
   1.59500003      -2.31037773E-02
   1.63000000       5.76467440E-03
