 -0.959999979       0.00000000
 -0.925000012       0.00000000
 -0.889999986      -6.68103782E-23
 -0.855000019      -1.33620756E-22
 -0.819999993       1.98949201E-14
 -0.785000026       1.19885425E-13
 -0.750000000      -4.71638109E-14
 -0.714999974      -2.45099134E-13
 -0.680000007      -4.14093320E-13
 -0.644999981       2.81525129E-12
 -0.610000014       7.04149846E-12
 -0.574999988      -8.95982854E-12
 -0.540000021      -1.84343062E-11
 -0.504999995       5.16933440E-11
 -0.469999999       8.69449998E-11
 -0.435000002       6.10528850E-11
 -0.400000006      -1.83400638E-11
 -0.365000010      -7.32845867E-11
 -0.330000013      -4.07535755E-10
 -0.294999987      -1.57134417E-10
 -0.259999990      -6.35394459E-10
 -0.224999994       1.10198128E-09
 -0.189999998       4.23833990E-09
 -0.155000001      -1.98722416E-09
 -0.119999997      -6.76414746E-09
  -8.50000009E-02  -4.80093520E-10
  -5.00000007E-02   5.19207699E-09
  -1.49999997E-02   4.87811169E-09
   1.99999996E-02  -1.34263234E-09
   5.49999997E-02  -7.33528482E-09
   9.00000036E-02  -2.27464780E-09
  0.125000000      -4.54378063E-11
  0.159999996      -1.10430607E-08
  0.194999993       2.16320473E-09
  0.230000004       2.18156586E-08
  0.264999986       4.26272351E-09
  0.300000012      -1.04172138E-08
  0.335000008       2.25918999E-08
  0.370000005       2.40095108E-08
  0.405000001      -1.68394205E-08
  0.439999998      -2.66992473E-08
  0.474999994       2.18275342E-10
  0.509999990       2.55198565E-08
  0.545000017       1.74059345E-08
  0.579999983      -2.97386666E-08
  0.615000010      -4.14558450E-08
  0.649999976      -6.78550016E-09
  0.685000002       5.98332717E-09
  0.720000029       9.37888167E-09
  0.754999995       3.35430386E-08
  0.790000021       1.70586496E-08
  0.824999988      -1.98331804E-08
  0.860000014      -3.96550526E-08
  0.894999981      -5.77524908E-08
  0.930000007      -2.38338771E-08
  0.964999974       5.66430067E-08
   1.00000000       9.82102488E-09
   1.03499997      -1.00485956E-07
   1.07000005      -8.93157477E-08
   1.10500002       5.40465761E-09
   1.13999999       4.30609433E-08
   1.17499995       8.57750759E-09
   1.21000004      -3.05190362E-08
   1.24500000      -1.66320024E-08
   1.27999997       6.40985931E-08
   1.31500006       1.01409555E-07
   1.35000002       4.84729306E-08
   1.38499999       3.19426174E-09
   1.41999996      -1.90172997E-08
   1.45500004      -6.47043166E-08
   1.49000001      -7.18697848E-08
   1.52499998      -3.79809295E-09
   1.55999994       6.03228543E-08
   1.59500003       7.10080101E-08
   1.63000000       3.28251843E-08
