 -0.800000012       0.00000000
 -0.788999975       0.00000000
 -0.777999997       0.00000000
 -0.767000020       0.00000000
 -0.755999982       1.30535860E-11
 -0.745000005      -6.25098723E-11
 -0.734000027       2.54223392E-10
 -0.722999990      -4.68938777E-10
 -0.712000012      -5.05171349E-10
 -0.700999975       3.56244056E-09
 -0.689999998      -3.95572153E-09
 -0.679000020      -7.21774995E-09
 -0.667999983       2.33126283E-08
 -0.657000005      -6.26160590E-09
 -0.646000028      -6.15047284E-08
 -0.634999990       7.16299127E-08
 -0.624000013       9.81996351E-08
 -0.612999976      -2.00307937E-07
 -0.601999998      -1.02556768E-07
 -0.591000021       2.78603295E-07
 -0.579999983       1.19521985E-07
 -0.569000006       7.48069837E-08
 -0.558000028      -3.75728831E-07
 -0.546999991      -1.59406750E-06
 -0.536000013       1.18636956E-06
 -0.524999976       5.16412865E-06
 -0.513999999      -2.42318652E-06
 -0.503000021      -1.09521507E-05
 -0.492000014       2.82992664E-06
 -0.481000006       1.67531980E-05
 -0.469999999      -4.60856796E-07
 -0.458999991      -1.67293911E-05
 -0.448000014      -4.34211961E-06
 -0.437000006       3.82200233E-06
 -0.425999999       5.18015304E-06
 -0.414999992       2.14486445E-05
 -0.404000014       7.05257207E-06
 -0.393000007      -4.28271887E-05
 -0.381999999      -2.82818037E-05
 -0.370999992       4.18867094E-05
 -0.360000014       3.68739893E-05
 -0.349000007      -2.79781216E-05
 -0.338000000      -3.45859189E-05
 -0.326999992       8.37353582E-06
 -0.316000015       4.48862957E-05
 -0.305000007       6.49617068E-05
 -0.294000000       3.83661500E-05
 -0.282999992       1.19168981E-05
 -0.272000015       9.50052490E-05
 -0.261000007       1.87734171E-04
 -0.250000000       1.37991330E-04
 -0.238999993       1.13910821E-04
 -0.228000000       2.93445744E-04
 -0.216999993       4.97213390E-04
 -0.206000000       5.82783890E-04
 -0.194999993       6.93205395E-04
 -0.184000000       9.09763970E-04
 -0.172999993       1.22342911E-03
 -0.162000000       1.72262324E-03
 -0.150999993       2.36279191E-03
 -0.140000001       2.97091785E-03
 -0.128999993       3.67199001E-03
 -0.118000001       4.74886084E-03
 -0.107000001       6.18979940E-03
  -9.60000008E-02   7.88357016E-03
  -8.50000009E-02   9.90998838E-03
  -7.40000010E-02   1.23557448E-02
  -6.30000010E-02   1.52939241E-02
  -5.20000011E-02   1.89093444E-02
  -4.10000011E-02   2.32649110E-02
  -2.99999993E-02   2.82732844E-02
  -1.89999994E-02   3.40647474E-02
  -8.00000038E-03   4.08859588E-02
   3.00000003E-03   4.87358719E-02
   1.40000004E-02   5.75578511E-02
   2.50000004E-02   6.74396008E-02
   3.59999985E-02   7.83791766E-02
   4.69999984E-02   9.03270170E-02
   5.79999983E-02  0.103364736
   6.89999983E-02  0.117382258
   7.99999982E-02  0.131964579
   9.09999982E-02  0.146858990
  0.101999998      0.161985114
  0.112999998      0.176988617
  0.123999998      0.191320434
  0.135000005      0.204485431
  0.145999998      0.215887800
  0.157000005      0.224857554
  0.167999998      0.230861694
  0.179000005      0.233302921
  0.189999998      0.231386065
  0.201000005      0.224439010
  0.211999997      0.211980492
  0.223000005      0.193493992
  0.233999997      0.168550476
  0.245000005      0.136979312
  0.256000012       9.86946747E-02
  0.266999990       5.36888354E-02
  0.277999997       2.28196243E-03
  0.289000005      -5.49208857E-02
  0.300000012     -0.117232129
  0.310999990     -0.183808893
  0.321999997     -0.253556043
  0.333000004     -0.325255781
  0.344000012     -0.397620171
  0.354999989     -0.469193965
  0.365999997     -0.538446009
  0.377000004     -0.603977203
  0.388000011     -0.664482474
  0.398999989     -0.718657017
  0.409999996     -0.765354693
  0.421000004     -0.803670764
  0.432000011     -0.832785249
  0.442999989     -0.852009654
  0.453999996     -0.860986114
  0.465000004     -0.859575510
  0.476000011     -0.847688079
  0.486999989     -0.825370848
  0.497999996     -0.792787790
  0.509000003     -0.750087500
  0.519999981     -0.697504401
  0.531000018     -0.635383368
  0.541999996     -0.563944876
  0.552999973     -0.483297676
  0.564000010     -0.393662006
  0.574999988     -0.295316607
  0.586000025     -0.188503936
  0.597000003      -7.35763833E-02
  0.607999980       4.89239655E-02
  0.619000018      0.178287417
  0.629999995      0.313536674
  0.640999973      0.453322887
  0.652000010      0.595926762
  0.662999988      0.739269495
  0.674000025      0.880936921
  0.685000002       1.01819515
  0.695999980       1.14796138
  0.707000017       1.26688528
  0.717999995       1.37154567
  0.728999972       1.45858192
  0.740000010       1.52480161
  0.750999987       1.56733382
  0.762000024       1.58375812
  0.773000002       1.57223117
  0.783999979       1.53164315
  0.795000017       1.46172035
  0.805999994       1.36308753
  0.816999972       1.23731077
  0.828000009       1.08683944
  0.838999987      0.914925575
  0.850000024      0.725577414
  0.861000001      0.523420334
  0.871999979      0.313507557
  0.883000016      0.101178616
  0.893999994     -0.108154774
  0.904999971     -0.309279770
  0.916000009     -0.497344941
  0.926999986     -0.667957664
  0.938000023     -0.817331016
  0.949000001     -0.942467749
  0.959999979      -1.04132342
  0.971000016      -1.11280918
  0.981999993      -1.15664947
  0.992999971      -1.17337608
   1.00399995      -1.16438317
   1.01499999      -1.13176084
   1.02600002      -1.07814252
   1.03699994      -1.00668359
   1.04799998     -0.920842230
   1.05900002     -0.824102700
   1.07000005     -0.719975829
   1.08099997     -0.611941516
   1.09200001     -0.503188968
   1.10300004     -0.396561295
   1.11399996     -0.294579327
   1.12500000     -0.199277058
   1.13600004     -0.112201340
   1.14699996      -3.45683061E-02
   1.15799999       3.28480192E-02
   1.16900003       8.98139328E-02
   1.17999995      0.136425570
   1.19099998      0.173023239
   1.20200002      0.200259253
   1.21300006      0.218930528
   1.22399998      0.229855731
   1.23500001      0.234029651
   1.24600005      0.232595935
   1.25699997      0.226601988
   1.26800001      0.216982231
   1.27900004      0.204647377
   1.28999996      0.190410882
   1.30100000      0.174963519
   1.31200004      0.158934370
   1.32299995      0.142832965
   1.33399999      0.127022937
   1.34500003      0.111833021
   1.35599995       9.75471064E-02
   1.36699998       8.43021944E-02
   1.37800002       7.21601024E-02
   1.38900006       6.11933433E-02
