 -0.959999979       0.00000000
 -0.925000012       0.00000000
 -0.889999986      -6.34920658E-11
 -0.855000019       1.26984132E-10
 -0.819999993      -4.06349221E-09
 -0.785000026       5.58730173E-09
 -0.750000000       6.09523809E-09
 -0.714999974      -3.45396849E-08
 -0.680000007       2.23492066E-07
 -0.644999981      -4.87619047E-07
 -0.610000014       8.12698460E-08
 -0.574999988       1.46285714E-07
 -0.540000021      -1.00774605E-06
 -0.504999995       4.12850795E-06
 -0.469999999      -2.53561916E-06
 -0.435000002      -2.47060325E-06
 -0.400000006       5.26628583E-06
 -0.365000010      -1.71641914E-05
 -0.330000013       4.36256523E-05
 -0.294999987      -6.34554963E-05
 -0.259999990       2.34057152E-05
 -0.224999994       8.21800641E-05
 -0.189999998      -1.11307178E-04
 -0.155000001      -1.97648260E-05
 -0.119999997       1.04805593E-04
  -8.50000009E-02  -1.97648260E-05
  -5.00000007E-02  -3.01673663E-05
  -1.49999997E-02  -1.04025403E-05
   1.99999996E-02  -1.97648260E-05
   5.49999997E-02   8.11398131E-05
   9.00000036E-02  -5.20126996E-05
  0.125000000       9.88241300E-06
  0.159999996      -3.90095265E-05
  0.194999993       2.91271117E-05
  0.230000004       5.82542234E-05
  0.264999986      -8.53008314E-05
  0.300000012       8.32203204E-06
  0.335000008       6.55360054E-05
  0.370000005       1.05325717E-05
  0.405000001      -6.24152381E-06
  0.439999998      -7.07372747E-05
  0.474999994      -1.18588956E-04
  0.509999990       5.20126996E-05
  0.545000017       1.78923685E-04
  0.579999983      -3.53686373E-05
  0.615000010       7.90593040E-05
  0.649999976      -7.54184148E-05
  0.685000002      -3.23518994E-04
  0.720000029       1.08186417E-04
  0.754999995       4.11940593E-04
  0.790000021      -2.03889780E-04
  0.824999988      -1.28991494E-04
  0.860000014       1.66440645E-04
  0.894999981      -1.62019554E-04
  0.930000007       3.88794942E-05
  0.964999974       1.87245721E-04
   1.00000000      -2.05970297E-04
   1.03499997      -3.12076190E-05
   1.07000005       1.12867558E-04
   1.10500002      -8.29602577E-05
   1.13999999       8.04246374E-05
   1.17499995       1.23660197E-04
   1.21000004      -2.03629723E-04
   1.24500000       2.91271117E-05
   1.27999997       1.12607493E-04
   1.31500006      -2.28595818E-04
   1.35000002       9.64185456E-05
   1.38499999       2.16762928E-04
   1.41999996      -2.53561913E-04
   1.45500004       5.77340979E-05
   1.49000001       2.56292580E-04
   1.52499998      -3.61098180E-04
   1.55999994      -9.77269883E-05
   1.59500003       4.02513280E-04
   1.63000000      -1.28926476E-04
