 -0.800000012       0.00000000
 -0.788999975       0.00000000
 -0.777999997       0.00000000
 -0.767000020       3.38034269E-22
 -0.755999982       1.59475230E-14
 -0.745000005      -2.58035043E-12
 -0.734000027       3.83396960E-12
 -0.722999990       5.75205205E-12
 -0.712000012      -2.79710456E-12
 -0.700999975      -4.99238151E-11
 -0.689999998       3.29014940E-11
 -0.679000020      -4.05827490E-11
 -0.667999983       2.43928933E-10
 -0.657000005      -3.18335275E-10
 -0.646000028       1.13031931E-10
 -0.634999990       3.21659283E-10
 -0.624000013      -1.01055009E-09
 -0.612999976       1.36699110E-10
 -0.601999998       1.48158441E-09
 -0.591000021      -2.65840766E-10
 -0.579999983      -1.15821230E-09
 -0.569000006       7.96651745E-10
 -0.558000028      -1.60840907E-09
 -0.546999991       3.50182350E-09
 -0.536000013      -5.32301647E-10
 -0.524999976      -7.63154784E-09
 -0.513999999       8.09963652E-09
 -0.503000021       6.87584167E-09
 -0.492000014      -2.48628300E-08
 -0.481000006       5.76683412E-09
 -0.469999999       4.48539019E-08
 -0.458999991      -2.62309445E-08
 -0.448000014      -5.12057312E-08
 -0.437000006       4.74328239E-08
 -0.425999999       3.13080584E-08
 -0.414999992      -9.94881830E-08
 -0.404000014       8.04523808E-08
 -0.393000007       8.08336722E-08
 -0.381999999      -1.54996783E-07
 -0.370999992      -7.88119081E-09
 -0.360000014       1.69105135E-07
 -0.349000007      -2.92536185E-07
 -0.338000000       3.38316880E-07
 -0.326999992       4.77989317E-07
 -0.316000015      -1.61166827E-06
 -0.305000007       1.92556413E-07
 -0.294000000       2.82824271E-06
 -0.282999992      -2.31874924E-06
 -0.272000015      -1.74941795E-06
 -0.261000007       4.94163214E-06
 -0.250000000      -2.67698215E-06
 -0.238999993      -7.22080495E-06
 -0.228000000       9.38832636E-06
 -0.216999993       7.12178371E-06
 -0.206000000      -1.37767138E-05
 -0.194999993      -7.84667179E-07
 -0.184000000       1.10156716E-05
 -0.172999993      -1.14247605E-05
 -0.162000000      -1.10981387E-06
 -0.150999993       1.88252361E-05
 -0.140000001      -6.62440243E-06
 -0.128999993      -2.14069132E-05
 -0.118000001       1.47425908E-05
 -0.107000001       1.07733131E-05
  -9.60000008E-02  -7.42186239E-06
  -8.50000009E-02   6.89149965E-06
  -7.40000010E-02   6.27712643E-06
  -6.30000010E-02  -5.26041513E-05
  -5.20000011E-02   1.05297968E-05
  -4.10000011E-02   6.98279473E-05
  -2.99999993E-02  -2.23758661E-06
  -1.89999994E-02  -7.92535502E-05
  -8.00000038E-03   2.16298977E-05
   3.00000003E-03   1.35520884E-06
   1.40000004E-02  -3.02814751E-05
   2.50000004E-02   4.94095948E-05
   3.59999985E-02   5.66648196E-05
   4.69999984E-02   6.79564027E-06
   5.79999983E-02  -1.28489759E-04
   6.89999983E-02   4.67137834E-05
   7.99999982E-02   6.45418841E-05
   9.09999982E-02  -5.91348362E-05
  0.101999998      -4.85407036E-05
  0.112999998       1.38948293E-04
  0.123999998      -3.09422576E-05
  0.135000005      -1.43599711E-04
  0.145999998      -5.37643318E-05
  0.157000005       1.41229291E-04
  0.167999998       1.20458302E-04
  0.179000005       3.56924756E-05
  0.189999998      -1.77871087E-04
  0.201000005      -1.95811546E-04
  0.211999997       2.26184595E-04
  0.223000005       3.04578862E-04
  0.233999997      -3.12549702E-04
  0.245000005      -3.84843937E-04
  0.256000012       3.23456334E-04
  0.266999990       2.67858064E-04
  0.277999997      -1.13382572E-04
  0.289000005       1.52404289E-04
  0.300000012      -9.89649343E-05
  0.310999990      -4.23895166E-04
  0.321999997       6.68201465E-05
  0.333000004       9.01333406E-05
  0.344000012       1.79508468E-04
  0.354999989       1.82789110E-04
  0.365999997       1.35978116E-04
  0.377000004      -6.50301692E-04
  0.388000011      -2.65169190E-04
  0.398999989       4.75841487E-04
  0.409999996       2.48252356E-04
  0.421000004      -7.61901683E-05
  0.432000011       2.40906331E-07
  0.442999989       8.02270733E-05
  0.453999996       1.02304701E-04
  0.465000004       1.17939300E-04
  0.476000011      -7.26079219E-04
  0.486999989      -3.52483272E-04
  0.497999996       5.35271101E-05
  0.509000003       8.97578546E-04
  0.519999981       2.78140069E-04
  0.531000018      -4.60772775E-04
  0.541999996       1.32907968E-04
  0.552999973       1.59645511E-04
  0.564000010      -1.02037378E-03
  0.574999988      -2.30139529E-04
  0.586000025       1.26467750E-03
  0.597000003      -1.36937408E-04
  0.607999980      -6.00821397E-04
  0.619000018       9.44294909E-04
  0.629999995      -3.96247400E-04
  0.640999973      -1.30827678E-03
  0.652000010       1.09771721E-03
  0.662999988       1.01201644E-03
  0.674000025      -1.51683076E-03
  0.685000002      -2.74308895E-05
  0.695999980       1.48601830E-03
  0.707000017      -4.50727966E-04
  0.717999995      -1.13498734E-03
  0.728999972       3.22755339E-04
  0.740000010       5.76541643E-04
  0.750999987       1.90386825E-04
  0.762000024      -8.75563826E-04
  0.773000002      -3.72028764E-04
  0.783999979       1.50852033E-03
  0.795000017       3.45035107E-04
  0.805999994      -2.54677329E-03
  0.816999972       9.49213136E-05
  0.828000009       3.10770655E-03
  0.838999987      -4.64651152E-04
  0.850000024      -2.38702539E-03
  0.861000001       9.10567644E-04
  0.871999979       7.45923899E-04
  0.883000016      -1.33797107E-03
  0.893999994       5.34664432E-04
  0.904999971       1.22148474E-03
  0.916000009      -8.13920691E-04
  0.926999986      -4.36881179E-04
  0.938000023       8.70349177E-04
  0.949000001      -6.85145962E-04
  0.959999979      -1.21763232E-03
  0.971000016       8.60918022E-04
  0.981999993       1.76250748E-03
  0.992999971      -1.26291634E-04
   1.00399995      -1.85767631E-03
   1.01499999      -3.02226457E-04
   1.02600002       1.36739365E-03
   1.03699994      -7.44172439E-06
   1.04799998      -1.33472902E-03
   1.05900002       4.23401390E-04
   1.07000005       1.65419339E-03
   1.08099997       5.56877276E-05
   1.09200001      -1.32472103E-03
   1.10300004      -5.46544616E-04
   1.11399996       5.39492525E-04
   1.12500000       3.31623101E-04
   1.13600004      -7.08623615E-04
   1.14699996      -3.17695463E-04
   1.15799999       1.63564226E-03
   1.16900003       1.13254343E-03
   1.17999995      -1.66462967E-03
   1.19099998      -1.53088383E-03
   1.20200002       5.18857909E-04
   1.21300006       3.37189558E-04
   1.22399998       3.17297585E-04
   1.23500001       1.13671168E-03
   1.24600005      -3.67055618E-04
   1.25699997      -1.24418573E-03
   1.26800001       7.37604045E-04
   1.27900004       4.87410085E-04
   1.28999996      -1.58674573E-03
   1.30100000      -5.96626269E-05
   1.31200004       2.04321463E-03
   1.32299995       2.54252227E-04
   1.33399999      -1.71634520E-03
   1.34500003      -7.72074680E-04
   1.35599995       1.02646661E-03
   1.36699998       1.26078946E-03
   1.37800002      -6.92953065E-04
   1.38900006      -1.60823448E-03
