 -0.800000012       0.00000000
 -0.788999975       0.00000000
 -0.777999997       0.00000000
 -0.767000020       0.00000000
 -0.755999982      -3.30543904E-12
 -0.745000005      -7.23186303E-11
 -0.734000027       5.49395807E-10
 -0.722999990      -1.30755651E-09
 -0.712000012      -7.47664486E-10
 -0.700999975       9.16009846E-09
 -0.689999998      -1.08182237E-08
 -0.679000020      -2.31805792E-08
 -0.667999983       6.38031281E-08
 -0.657000005       1.15892282E-08
 -0.646000028      -1.88275862E-07
 -0.634999990       1.08340856E-07
 -0.624000013       3.55797511E-07
 -0.612999976      -4.23419465E-07
 -0.601999998      -4.04387208E-07
 -0.591000021       8.62441880E-07
 -0.579999983       4.14148804E-09
 -0.569000006      -9.86834948E-07
 -0.558000028       1.28847489E-06
 -0.546999991       1.05412079E-08
 -0.536000013      -3.82213102E-06
 -0.524999976       2.58965338E-06
 -0.513999999       7.26237522E-06
 -0.503000021      -6.05057039E-06
 -0.492000014      -9.46763066E-06
 -0.481000006       8.26458290E-06
 -0.469999999       5.91094113E-06
 -0.458999991      -8.16282136E-06
 -0.448000014       7.34564128E-06
 -0.437000006       8.28853899E-06
 -0.425999999      -2.62977828E-05
 -0.414999992      -1.09482407E-05
 -0.404000014       3.61385682E-05
 -0.393000007       8.55526469E-06
 -0.381999999      -2.53604649E-05
 -0.370999992       1.23590535E-05
 -0.360000014       2.79018604E-06
 -0.349000007      -4.56531743E-05
 -0.338000000       1.97999871E-05
 -0.326999992       6.90837624E-05
 -0.316000015      -4.59051553E-05
 -0.305000007      -8.76191625E-05
 -0.294000000       2.76310420E-05
 -0.282999992       1.78351402E-05
 -0.272000015      -7.34357236E-05
 -0.261000007      -2.99521412E-06
 -0.250000000       2.68593085E-05
 -0.238999993      -1.26153755E-04
 -0.228000000      -1.42567485E-04
 -0.216999993      -1.17196078E-05
 -0.206000000      -6.94032424E-05
 -0.194999993      -2.10829356E-04
 -0.184000000      -2.14129119E-04
 -0.172999993      -2.62624584E-04
 -0.162000000      -3.94187606E-04
 -0.150999993      -4.28439089E-04
 -0.140000001      -5.17434906E-04
 -0.128999993      -7.65508565E-04
 -0.118000001      -9.18699545E-04
 -0.107000001      -1.02568686E-03
  -9.60000008E-02  -1.35526282E-03
  -8.50000009E-02  -1.71613065E-03
  -7.40000010E-02  -1.91836257E-03
  -6.30000010E-02  -2.22581369E-03
  -5.20000011E-02  -2.68884166E-03
  -4.10000011E-02  -3.06094741E-03
  -2.99999993E-02  -3.42779630E-03
  -1.89999994E-02  -3.92200146E-03
  -8.00000038E-03  -4.31038346E-03
   3.00000003E-03  -4.50069737E-03
   1.40000004E-02  -4.68277931E-03
   2.50000004E-02  -4.80131432E-03
   3.59999985E-02  -4.61075967E-03
   4.69999984E-02  -4.06406028E-03
   5.79999983E-02  -3.18882056E-03
   6.89999983E-02  -1.85812777E-03
   7.99999982E-02   1.38117539E-04
   9.09999982E-02   2.92679970E-03
  0.101999998       6.50731334E-03
  0.112999998       1.09515637E-02
  0.123999998       1.64841358E-02
  0.135000005       2.31680516E-02
  0.145999998       3.08969337E-02
  0.157000005       3.97649929E-02
  0.167999998       4.98534329E-02
  0.179000005       6.08669966E-02
  0.189999998       7.25349709E-02
  0.201000005       8.47910866E-02
  0.211999997       9.72328484E-02
  0.223000005      0.109144054
  0.233999997      0.119962640
  0.245000005      0.129051968
  0.256000012      0.135430679
  0.266999990      0.138066903
  0.277999997      0.135889113
  0.289000005      0.127611056
  0.300000012      0.111990705
  0.310999990       8.78696144E-02
  0.321999997       5.38938306E-02
  0.333000004       8.75089504E-03
  0.344000012      -4.85339575E-02
  0.354999989     -0.118833832
  0.365999997     -0.202874675
  0.377000004     -0.300840795
  0.388000011     -0.412517786
  0.398999989     -0.537497759
  0.409999996     -0.674723923
  0.421000004     -0.822209299
  0.432000011     -0.977412879
  0.442999989      -1.13737094
  0.453999996      -1.29833508
  0.465000004      -1.45569575
  0.476000011      -1.60428202
  0.486999989      -1.73843086
  0.497999996      -1.85189676
  0.509000003      -1.93810451
  0.519999981      -1.99051738
  0.531000018      -2.00266933
  0.541999996      -1.96825469
  0.552999973      -1.88162673
  0.564000010      -1.73817420
  0.574999988      -1.53442681
  0.586000025      -1.26838171
  0.597000003     -0.939861715
  0.607999980     -0.550572455
  0.619000018     -0.104338393
  0.629999995      0.392515272
  0.640999973      0.931334972
  0.652000010       1.50144935
  0.662999988       2.09005046
  0.674000025       2.68238330
  0.685000002       3.26245070
  0.695999980       3.81337285
  0.707000017       4.31764317
  0.717999995       4.75802040
  0.728999972       5.11838675
  0.740000010       5.38410902
  0.750999987       5.54266167
  0.762000024       5.58448601
  0.773000002       5.50335598
  0.783999979       5.29661179
  0.795000017       4.96561337
  0.805999994       4.51586533
  0.816999972       3.95677733
  0.828000009       3.30151176
  0.838999987       2.56662846
  0.850000024       1.77128887
  0.861000001      0.936652541
  0.871999979       8.54006708E-02
  0.883000016     -0.759341478
  0.893999994      -1.57519412
  0.904999971      -2.34100294
  0.916000009      -3.03727651
  0.926999986      -3.64724422
  0.938000023      -4.15766335
  0.949000001      -4.55882502
  0.959999979      -4.84465551
  0.971000016      -5.01313734
  0.981999993      -5.06614733
  0.992999971      -5.00883770
   1.00399995      -4.84941435
   1.01499999      -4.59900522
   1.02600002      -4.27085066
   1.03699994      -3.87932396
   1.04799998      -3.43956423
   1.05900002      -2.96722436
   1.07000005      -2.47763538
   1.08099997      -1.98493862
   1.09200001      -1.50187373
   1.10300004      -1.03977942
   1.11399996     -0.608231544
   1.12500000     -0.214674756
   1.13600004      0.135526180
   1.14699996      0.438880324
   1.15799999      0.693714559
   1.16900003      0.900114894
   1.17999995       1.05968773
   1.19099998       1.17517650
   1.20200002       1.25012183
   1.21300006       1.28874063
   1.22399998       1.29580438
   1.23500001       1.27625537
   1.24600005       1.23489630
   1.25699997       1.17643034
   1.26800001       1.10537052
   1.27900004       1.02567840
   1.28999996      0.940747619
   1.30100000      0.853631794
   1.31200004      0.766876161
   1.32299995      0.682325423
   1.33399999      0.601438165
   1.34500003      0.525485754
   1.35599995      0.455283731
   1.36699998      0.391153723
   1.37800002      0.333209038
   1.38900006      0.281399071
