 -0.800000012       0.00000000
 -0.788999975       0.00000000
 -0.777999997       0.00000000
 -0.767000020       0.00000000
 -0.755999982      -3.30543926E-12
 -0.745000005      -7.23186233E-11
 -0.734000027       5.49395696E-10
 -0.722999990      -1.30755651E-09
 -0.712000012      -7.47664042E-10
 -0.700999975       9.16009846E-09
 -0.689999998      -1.08182228E-08
 -0.679000020      -2.31805792E-08
 -0.667999983       6.38031281E-08
 -0.657000005       1.15892078E-08
 -0.646000028      -1.88275877E-07
 -0.634999990       1.08340920E-07
 -0.624000013       3.55797567E-07
 -0.612999976      -4.23419493E-07
 -0.601999998      -4.04387094E-07
 -0.591000021       8.62441937E-07
 -0.579999983       4.14144186E-09
 -0.569000006      -9.86834948E-07
 -0.558000028       1.28847489E-06
 -0.546999991       1.05414939E-08
 -0.536000013      -3.82213102E-06
 -0.524999976       2.58965247E-06
 -0.513999999       7.26237431E-06
 -0.503000021      -6.05056812E-06
 -0.492000014      -9.46762975E-06
 -0.481000006       8.26458108E-06
 -0.469999999       5.91094067E-06
 -0.458999991      -8.16282318E-06
 -0.448000014       7.34564128E-06
 -0.437000006       8.28854445E-06
 -0.425999999      -2.62977810E-05
 -0.414999992      -1.09482544E-05
 -0.404000014       3.61385646E-05
 -0.393000007       8.55528742E-06
 -0.381999999      -2.53604503E-05
 -0.370999992       1.23590189E-05
 -0.360000014       2.79013602E-06
 -0.349000007      -4.56531161E-05
 -0.338000000       1.98001471E-05
 -0.326999992       6.90837114E-05
 -0.316000015      -4.59055045E-05
 -0.305000007      -8.76192789E-05
 -0.294000000       2.76315150E-05
 -0.282999992       1.78356895E-05
 -0.272000015      -7.34359419E-05
 -0.261000007      -2.99642466E-06
 -0.250000000       2.68585682E-05
 -0.238999993      -1.26152183E-04
 -0.228000000      -1.42565186E-04
 -0.216999993      -1.17202471E-05
 -0.206000000      -6.94065238E-05
 -0.194999993      -2.10831873E-04
 -0.184000000      -2.14127795E-04
 -0.172999993      -2.62617483E-04
 -0.162000000      -3.94183560E-04
 -0.150999993      -4.28450119E-04
 -0.140000001      -5.17445616E-04
 -0.128999993      -7.65494595E-04
 -0.118000001      -9.18684702E-04
 -0.107000001      -1.02570606E-03
  -9.60000008E-02  -1.35528017E-03
  -8.50000009E-02  -1.71610515E-03
  -7.40000010E-02  -1.91834534E-03
  -6.30000010E-02  -2.22584233E-03
  -5.20000011E-02  -2.68884399E-03
  -4.10000011E-02  -3.06090666E-03
  -2.99999993E-02  -3.42780189E-03
  -1.89999994E-02  -3.92205315E-03
  -8.00000038E-03  -4.31040255E-03
   3.00000003E-03  -4.50067362E-03
   1.40000004E-02  -4.68272530E-03
   2.50000004E-02  -4.80127521E-03
   3.59999985E-02  -4.61087469E-03
   4.69999984E-02  -4.06425400E-03
   5.79999983E-02  -3.18876770E-03
   6.89999983E-02  -1.85787131E-03
   7.99999982E-02   1.38143223E-04
   9.09999982E-02   2.92665092E-03
  0.101999998       6.50741067E-03
  0.112999998       1.09516419E-02
  0.123999998       1.64838806E-02
  0.135000005       2.31679827E-02
  0.145999998       3.08972020E-02
  0.157000005       3.97649370E-02
  0.167999998       4.98532504E-02
  0.179000005       6.08673058E-02
  0.189999998       7.25349560E-02
  0.201000005       8.47902894E-02
  0.211999997       9.72327068E-02
  0.223000005      0.109144978
  0.233999997      0.119963154
  0.245000005      0.129051730
  0.256000012      0.135430366
  0.266999990      0.138066366
  0.277999997      0.135888755
  0.289000005      0.127611712
  0.300000012      0.111991554
  0.310999990       8.78697187E-02
  0.321999997       5.38937822E-02
  0.333000004       8.75082519E-03
  0.344000012      -4.85343635E-02
  0.354999989     -0.118833870
  0.365999997     -0.202874884
  0.377000004     -0.300842196
  0.388000011     -0.412518114
  0.398999989     -0.537495613
  0.409999996     -0.674722731
  0.421000004     -0.822210670
  0.432000011     -0.977413118
  0.442999989      -1.13737011
  0.453999996      -1.29833591
  0.465000004      -1.45569611
  0.476000011      -1.60428011
  0.486999989      -1.73843098
  0.497999996      -1.85189950
  0.509000003      -1.93810463
  0.519999981      -1.99051440
  0.531000018      -2.00266910
  0.541999996      -1.96825719
  0.552999973      -1.88162553
  0.564000010      -1.73817205
  0.574999988      -1.53442824
  0.586000025      -1.26838171
  0.597000003     -0.939858139
  0.607999980     -0.550569475
  0.619000018     -0.104337394
  0.629999995      0.392518133
  0.640999973      0.931337595
  0.652000010       1.50144589
  0.662999988       2.09004354
  0.674000025       2.68238187
  0.685000002       3.26245666
  0.695999980       3.81337762
  0.707000017       4.31764269
  0.717999995       4.75801897
  0.728999972       5.11838627
  0.740000010       5.38410568
  0.750999987       5.54265928
  0.762000024       5.58448935
  0.773000002       5.50336361
  0.783999979       5.29661608
  0.795000017       4.96561289
  0.805999994       4.51586437
  0.816999972       3.95677519
  0.828000009       3.30150867
  0.838999987       2.56662726
  0.850000024       1.77128994
  0.861000001      0.936656535
  0.871999979       8.54023695E-02
  0.883000016     -0.759346783
  0.893999994      -1.57519996
  0.904999971      -2.34100342
  0.916000009      -3.03727508
  0.926999986      -3.64724088
  0.938000023      -4.15765381
  0.949000001      -4.55881786
  0.959999979      -4.84466076
  0.971000016      -5.01314640
  0.981999993      -5.06615257
  0.992999971      -5.00884342
   1.00399995      -4.84942150
   1.01499999      -4.59900665
   1.02600002      -4.27084398
   1.03699994      -3.87931442
   1.04799998      -3.43955755
   1.05900002      -2.96722078
   1.07000005      -2.47763562
   1.08099997      -1.98494422
   1.09200001      -1.50187933
   1.10300004      -1.03977668
   1.11399996     -0.608222187
   1.12500000     -0.214667633
   1.13600004      0.135524154
   1.14699996      0.438869953
   1.15799999      0.693705320
   1.16900003      0.900116205
   1.17999995       1.05969536
   1.19099998       1.17517722
   1.20200002       1.25011706
   1.21300006       1.28874147
   1.22399998       1.29580748
   1.23500001       1.27625084
   1.24600005       1.23488796
   1.25699997       1.17642713
   1.26800001       1.10537100
   1.27900004       1.02567911
   1.28999996      0.940751433
   1.30100000      0.853638947
   1.31200004      0.766881704
   1.32299995      0.682328522
   1.33399999      0.601440489
   1.34500003      0.525482476
   1.35599995      0.455272675
   1.36699998      0.391145557
   1.37800002      0.333213240
   1.38900006      0.281408519
