 -0.800000012       0.00000000
 -0.788999975       0.00000000
 -0.777999997       0.00000000
 -0.767000020       0.00000000
 -0.755999982       1.03149204E-29
 -0.745000005       1.71430072E-21
 -0.734000027      -3.19097122E-19
 -0.722999990       1.57985097E-18
 -0.712000012      -4.98923003E-18
 -0.700999975       1.52115355E-17
 -0.689999998       4.48477443E-17
 -0.679000020      -1.65361967E-16
 -0.667999983       3.28591245E-17
 -0.657000005      -3.00396926E-16
 -0.646000028      -1.03813057E-15
 -0.634999990       1.80811973E-15
 -0.624000013       4.48886857E-16
 -0.612999976      -3.85574141E-15
 -0.601999998       8.35501525E-15
 -0.591000021      -9.13074581E-15
 -0.579999983      -3.08743103E-14
 -0.569000006       6.80616655E-14
 -0.558000028       6.00917225E-14
 -0.546999991      -1.94009508E-13
 -0.536000013      -7.09636275E-14
 -0.524999976       3.60285884E-13
 -0.513999999       2.31513790E-14
 -0.503000021      -5.29636502E-13
 -0.492000014       8.74793402E-14
 -0.481000006       7.46944119E-13
 -0.469999999      -7.60168363E-14
 -0.458999991      -1.25436770E-12
 -0.448000014      -3.54356816E-13
 -0.437000006       2.50036233E-12
 -0.425999999       1.20620853E-12
 -0.414999992      -4.63310900E-12
 -0.404000014      -1.66700659E-12
 -0.393000007       6.92909011E-12
 -0.381999999       9.41695723E-13
 -0.370999992      -7.79064920E-12
 -0.360000014       7.73500513E-13
 -0.349000007       5.36698550E-12
 -0.338000000      -2.04513663E-12
 -0.326999992      -2.76460712E-12
 -0.316000015      -1.93655703E-12
 -0.305000007       9.16748535E-12
 -0.294000000       1.17798150E-11
 -0.282999992      -3.82331077E-11
 -0.272000015      -2.35657344E-11
 -0.261000007       8.59267033E-11
 -0.250000000       2.51643376E-11
 -0.238999993      -1.27886798E-10
 -0.228000000      -2.31462800E-11
 -0.216999993       1.15198052E-10
 -0.206000000       3.80816177E-11
 -0.194999993      -3.32640686E-11
 -0.184000000      -1.25861044E-10
 -0.172999993      -1.45083223E-10
 -0.162000000       2.34363973E-10
 -0.150999993       3.66333519E-10
 -0.140000001      -2.26069719E-10
 -0.128999993      -5.39778888E-10
 -0.118000001      -1.38416362E-10
 -0.107000001       3.38538586E-10
  -9.60000008E-02   6.50135723E-10
  -8.50000009E-02   1.27362024E-10
  -7.40000010E-02  -1.08054699E-09
  -6.30000010E-02  -8.58269678E-10
  -5.20000011E-02   1.02694697E-09
  -4.10000011E-02   1.47765578E-09
  -2.99999993E-02  -5.87423055E-10
  -1.89999994E-02  -2.13847495E-09
  -8.00000038E-03  -3.41894041E-10
   3.00000003E-03   2.78696999E-09
   1.40000004E-02   1.68797076E-09
   2.50000004E-02  -2.97706526E-09
   3.59999985E-02  -3.96673006E-09
   4.69999984E-02  -7.35572714E-10
   5.79999983E-02   1.53646906E-09
   6.89999983E-02   3.96609590E-09
   7.99999982E-02   4.78232876E-09
   9.09999982E-02  -2.54935850E-09
  0.101999998      -9.12924669E-09
  0.112999998      -1.57526117E-10
  0.123999998       1.07498872E-08
  0.135000005       2.93900371E-09
  0.145999998      -9.64002922E-09
  0.157000005      -4.61268490E-09
  0.167999998       6.12641093E-09
  0.179000005       3.99734246E-09
  0.189999998      -3.34925332E-09
  0.201000005      -3.25994720E-09
  0.211999997      -4.68516070E-09
  0.223000005      -7.50276552E-09
  0.233999997       5.19667953E-09
  0.245000005       2.24790817E-08
  0.256000012       8.38924930E-09
  0.266999990      -2.25182735E-08
  0.277999997      -1.30434454E-08
  0.289000005       2.72063669E-08
  0.300000012       2.24785559E-08
  0.310999990      -2.42664200E-08
  0.321999997      -2.79750783E-08
  0.333000004       1.08447491E-08
  0.344000012       6.11334050E-09
  0.354999989      -2.55837076E-08
  0.365999997       1.16340859E-09
  0.377000004       4.14954542E-08
  0.388000011       8.37981862E-09
  0.398999989      -2.64687987E-08
  0.409999996       1.25576805E-09
  0.421000004       1.32434588E-08
  0.432000011      -9.48399581E-09
  0.442999989      -1.05024511E-09
  0.453999996       3.07737409E-08
  0.465000004       3.34688970E-08
  0.476000011       5.85908921E-09
  0.486999989      -3.08531796E-08
  0.497999996      -2.40478286E-08
  0.509000003       1.00590594E-08
  0.519999981      -7.71576225E-09
  0.531000018      -3.35060300E-08
  0.541999996       2.45617944E-08
  0.552999973       6.79838124E-08
  0.564000010      -1.10032765E-08
  0.574999988      -6.58399415E-08
  0.586000025       6.23050544E-09
  0.597000003       5.73388590E-08
  0.607999980       2.52506682E-09
  0.619000018      -3.35315136E-08
  0.629999995      -8.60483418E-09
  0.640999973       6.97897518E-10
  0.652000010      -9.70440350E-09
  0.662999988       2.29028956E-08
  0.674000025       4.37889049E-08
  0.685000002      -3.15805160E-08
  0.695999980      -1.40329021E-07
  0.707000017      -1.01242705E-07
  0.717999995       6.67028601E-08
  0.728999972       1.03781559E-07
  0.740000010      -1.26864945E-08
  0.750999987      -6.45083986E-08
  0.762000024       3.81418630E-08
  0.773000002       9.05089479E-08
  0.783999979      -3.73008042E-08
  0.795000017      -1.17517743E-07
  0.805999994       2.36254696E-08
  0.816999972       1.01849189E-07
  0.828000009      -9.05276352E-08
  0.838999987      -1.64625675E-07
  0.850000024       1.05628381E-07
  0.861000001       2.91823994E-07
  0.871999979       9.96772940E-08
  0.883000016      -1.28809305E-07
  0.893999994      -1.35512821E-07
  0.904999971       3.10617776E-09
  0.916000009       1.52310164E-07
  0.926999986       1.18963449E-07
  0.938000023      -1.09220643E-07
  0.949000001      -2.46786442E-07
  0.959999979      -1.56578395E-07
  0.971000016       4.94859904E-08
  0.981999993       2.21317336E-07
  0.992999971       1.85731082E-07
   1.00399995      -4.62281911E-08
   1.01499999      -1.56811069E-07
   1.02600002      -8.39309209E-08
   1.03699994      -8.42514751E-08
   1.04799998      -7.99151891E-08
   1.05900002       8.74762378E-08
   1.07000005       1.52341698E-07
   1.08099997      -4.79228879E-09
   1.09200001      -7.07463883E-08
   1.10300004      -1.83032600E-09
   1.11399996      -9.17723852E-09
   1.12500000      -3.64018433E-08
   1.13600004      -2.01883346E-08
   1.14699996      -1.99123082E-08
   1.15799999       2.73772631E-08
   1.16900003       1.07621418E-07
   1.17999995       7.79727358E-08
   1.19099998      -1.53943773E-08
   1.20200002      -6.82553676E-08
   1.21300006      -1.38841713E-07
   1.22399998      -1.46600371E-07
   1.23500001       2.30527242E-08
   1.24600005       1.41879582E-07
   1.25699997       5.42348317E-08
   1.26800001       5.46136825E-09
   1.27900004       8.65821548E-08
   1.28999996       6.61227517E-08
   1.30100000      -7.45233919E-08
   1.31200004      -1.48366667E-07
   1.32299995      -1.29154827E-07
   1.33399999      -5.22496535E-08
   1.34500003       9.13526179E-08
   1.35599995       1.87753429E-07
   1.36699998       1.08365384E-07
   1.37800002      -6.70591191E-08
   1.38900006      -1.60642543E-07
