 -0.800000012       0.00000000
 -0.788999975       0.00000000
 -0.777999997      -2.53316967E-09
 -0.767000020       2.68293103E-08
 -0.755999982       1.00033599E-08
 -0.745000005      -3.37728579E-07
 -0.734000027      -8.25954487E-08
 -0.722999990       1.34978256E-06
 -0.712000012       6.23395380E-08
 -0.700999975      -3.30467424E-06
 -0.689999998       6.06801621E-07
 -0.679000020       5.72501267E-06
 -0.667999983      -3.02650574E-06
 -0.657000005      -8.71196971E-06
 -0.646000028       5.50951518E-06
 -0.634999990       1.13536835E-05
 -0.624000013      -1.82921804E-06
 -0.612999976      -7.39989673E-06
 -0.601999998      -1.27846279E-05
 -0.591000021      -1.59934007E-05
 -0.579999983       2.41264970E-05
 -0.569000006       5.24861643E-05
 -0.558000028      -1.76270496E-05
 -0.546999991      -7.83982541E-05
 -0.536000013      -2.34721188E-06
 -0.524999976       8.26581600E-05
 -0.513999999       3.02647877E-05
 -0.503000021      -7.31575492E-05
 -0.492000014      -9.90090630E-05
 -0.481000006      -1.88265512E-05
 -0.469999999       1.23460704E-04
 -0.458999991       1.69297899E-04
 -0.448000014       1.56129499E-05
 -0.437000006      -1.35229493E-04
 -0.425999999      -4.26666484E-05
 -0.414999992       2.00114533E-04
 -0.404000014       3.56268079E-04
 -0.393000007       3.54838267E-04
 -0.381999999       2.89304880E-04
 -0.370999992       3.44806060E-04
 -0.360000014       6.45827502E-04
 -0.349000007       1.05988630E-03
 -0.338000000       1.37163512E-03
 -0.326999992       1.61503954E-03
 -0.316000015       2.01474852E-03
 -0.305000007       2.76890676E-03
 -0.294000000       3.97333270E-03
 -0.282999992       5.50230872E-03
 -0.272000015       7.08313053E-03
 -0.261000007       8.78306478E-03
 -0.250000000       1.11293308E-02
 -0.238999993       1.44933229E-02
 -0.228000000       1.87614877E-02
 -0.216999993       2.37738546E-02
 -0.206000000       2.96694972E-02
 -0.194999993       3.67786400E-02
 -0.184000000       4.55044992E-02
 -0.172999993       5.61774373E-02
 -0.162000000       6.88520670E-02
 -0.150999993       8.34980756E-02
 -0.140000001      0.100383595
 -0.128999993      0.119971879
 -0.118000001      0.142540395
 -0.107000001      0.168100253
  -9.60000008E-02  0.196558952
  -8.50000009E-02  0.227873251
  -7.40000010E-02  0.262041956
  -6.30000010E-02  0.298901737
  -5.20000011E-02  0.338038266
  -4.10000011E-02  0.378881842
  -2.99999993E-02  0.420659512
  -1.89999994E-02  0.462381154
  -8.00000038E-03  0.502988398
   3.00000003E-03  0.541184127
   1.40000004E-02  0.575239003
   2.50000004E-02  0.603364289
   3.59999985E-02  0.623854697
   4.69999984E-02  0.634678662
   5.79999983E-02  0.633600652
   6.89999983E-02  0.618576407
   7.99999982E-02  0.587518096
   9.09999982E-02  0.538349748
  0.101999998      0.469569176
  0.112999998      0.380003422
  0.123999998      0.268450588
  0.135000005      0.134355813
  0.145999998      -2.19158102E-02
  0.157000005     -0.199642092
  0.167999998     -0.397492200
  0.179000005     -0.613014519
  0.189999998     -0.843125939
  0.201000005      -1.08429229
  0.211999997      -1.33198142
  0.223000005      -1.58090222
  0.233999997      -1.82552552
  0.245000005      -2.05976987
  0.256000012      -2.27696633
  0.266999990      -2.47048211
  0.277999997      -2.63382053
  0.289000005      -2.76051211
  0.300000012      -2.84456301
  0.310999990      -2.88073206
  0.321999997      -2.86441827
  0.333000004      -2.79187226
  0.344000012      -2.66056228
  0.354999989      -2.46927881
  0.365999997      -2.21825552
  0.377000004      -1.90933931
  0.388000011      -1.54595089
  0.398999989      -1.13299012
  0.409999996     -0.676830411
  0.421000004     -0.185338363
  0.432000011      0.332179248
  0.442999989      0.865180373
  0.453999996       1.40217173
  0.465000004       1.93096018
  0.476000011       2.43901181
  0.486999989       2.91391349
  0.497999996       3.34362459
  0.509000003       3.71669269
  0.519999981       4.02278852
  0.531000018       4.25320339
  0.541999996       4.40102100
  0.552999973       4.46135378
  0.564000010       4.43175936
  0.574999988       4.31239748
  0.586000025       4.10588503
  0.597000003       3.81725860
  0.607999980       3.45401955
  0.619000018       3.02586412
  0.629999995       2.54423976
  0.640999973       2.02205515
  0.652000010       1.47334695
  0.662999988      0.912665486
  0.674000025      0.354500413
  0.685000002     -0.187095940
  0.695999980     -0.698995709
  0.707000017      -1.16951358
  0.717999995      -1.58866084
  0.728999972      -1.94838369
  0.740000010      -2.24289989
  0.750999987      -2.46877265
  0.762000024      -2.62476945
  0.773000002      -2.71183896
  0.783999979      -2.73301959
  0.795000017      -2.69312286
  0.805999994      -2.59845448
  0.816999972      -2.45652103
  0.828000009      -2.27554178
  0.838999987      -2.06404948
  0.850000024      -1.83070648
  0.861000001      -1.58403873
  0.871999979      -1.33206511
  0.883000016      -1.08204448
  0.893999994     -0.840333521
  0.904999971     -0.612244129
  0.916000009     -0.401946008
  0.926999986     -0.212506220
  0.938000023      -4.60067578E-02
  0.949000001       9.64383185E-02
  0.959999979      0.214696333
  0.971000016      0.309423029
  0.981999993      0.381818771
  0.992999971      0.433587134
   1.00399995      0.466841936
   1.01499999      0.483851671
   1.02600002      0.486994267
   1.03699994      0.478806794
   1.04799998      0.461708903
   1.05900002      0.437756747
   1.07000005      0.408812702
   1.08099997      0.376655757
   1.09200001      0.342813551
   1.10300004      0.308542401
   1.11399996      0.274893939
   1.12500000      0.242604718
   1.13600004      0.212119311
   1.14699996      0.183802113
   1.15799999      0.157942116
   1.16900003      0.134658188
   1.17999995      0.113945253
   1.19099998       9.56764966E-02
   1.20200002       7.96236321E-02
   1.21300006       6.56389296E-02
   1.22399998       5.36578931E-02
   1.23500001       4.35143970E-02
   1.24600005       3.49777192E-02
   1.25699997       2.78363451E-02
   1.26800001       2.18309071E-02
   1.27900004       1.67717952E-02
   1.28999996       1.26622608E-02
   1.30100000       9.44963098E-03
   1.31200004       6.90455316E-03
   1.32299995       4.86410782E-03
   1.33399999       3.26346536E-03
   1.34500003       2.01839581E-03
   1.35599995       1.12284045E-03
   1.36699998       5.93657896E-04
   1.37800002       2.86921451E-04
   1.38900006       7.86513410E-05
