 -0.800000012       0.00000000
 -0.788999975       0.00000000
 -0.777999997       0.00000000
 -0.767000020       1.35099640E-23
 -0.755999982       3.17312203E-13
 -0.745000005      -3.13364265E-12
 -0.734000027       9.47057884E-12
 -0.722999990      -7.49859983E-12
 -0.712000012      -2.80293670E-11
 -0.700999975       6.42709774E-11
 -0.689999998       2.79155744E-11
 -0.679000020      -1.02811600E-10
 -0.667999983       1.19158433E-10
 -0.657000005      -6.91607813E-11
 -0.646000028      -2.86629526E-10
 -0.634999990       4.34473013E-10
 -0.624000013      -3.54167889E-10
 -0.612999976       1.77536472E-10
 -0.601999998       3.64308028E-10
 -0.591000021      -3.76490034E-10
 -0.579999983       9.05931996E-10
 -0.569000006      -6.64463373E-10
 -0.558000028      -2.96746894E-09
 -0.546999991       4.71219197E-09
 -0.536000013       2.77554668E-09
 -0.524999976      -1.48003423E-08
 -0.513999999       4.89681540E-09
 -0.503000021       2.70010165E-08
 -0.492000014      -2.30988846E-08
 -0.481000006      -2.99724263E-08
 -0.469999999       5.13589811E-08
 -0.458999991       3.82474985E-09
 -0.448000014      -7.36619370E-08
 -0.437000006       6.64783997E-08
 -0.425999999       5.19643137E-08
 -0.414999992      -1.47380007E-07
 -0.404000014       4.84821712E-08
 -0.393000007       1.28527006E-07
 -0.381999999      -2.04020964E-07
 -0.370999992       1.96760865E-07
 -0.360000014       1.48158236E-07
 -0.349000007      -8.92651030E-07
 -0.338000000       6.11887515E-07
 -0.326999992       1.50331334E-06
 -0.316000015      -2.42848182E-06
 -0.305000007      -8.21721756E-07
 -0.294000000       4.54497194E-06
 -0.282999992      -1.77054415E-06
 -0.272000015      -5.40658539E-06
 -0.261000007       5.97672170E-06
 -0.250000000       2.16688409E-06
 -0.238999993      -9.63310504E-06
 -0.228000000       6.91499736E-06
 -0.216999993       8.58794283E-06
 -0.206000000      -1.73486333E-05
 -0.194999993      -5.28489011E-07
 -0.184000000       2.03612799E-05
 -0.172999993      -1.31216175E-05
 -0.162000000      -1.13051838E-05
 -0.150999993       3.06151014E-05
 -0.140000001      -1.00666748E-05
 -0.128999993      -4.76124187E-05
 -0.118000001       4.87574252E-05
 -0.107000001       3.70671987E-05
  -9.60000008E-02  -7.51660555E-05
  -8.50000009E-02  -1.16817012E-06
  -7.40000010E-02   7.62992058E-05
  -6.30000010E-02  -6.02810505E-05
  -5.20000011E-02  -3.12449265E-05
  -4.10000011E-02   1.01249359E-04
  -2.99999993E-02  -4.79529008E-05
  -1.89999994E-02  -7.02535181E-05
  -8.00000038E-03   8.73887475E-05
   3.00000003E-03   5.05049211E-05
   1.40000004E-02  -9.60859979E-05
   2.50000004E-02  -2.85593378E-05
   3.59999985E-02   2.97786355E-05
   4.69999984E-02   1.54094141E-05
   5.79999983E-02  -9.57626435E-06
   6.89999983E-02   5.47828786E-05
   7.99999982E-02   4.89681443E-05
   9.09999982E-02  -1.06927073E-04
  0.101999998      -5.89703668E-05
  0.112999998       1.08023892E-06
  0.123999998      -1.79596791E-05
  0.135000005       1.87495622E-04
  0.145999998       5.16354958E-05
  0.157000005      -2.26797129E-04
  0.167999998       9.16444624E-05
  0.179000005       1.39992713E-04
  0.189999998      -2.51556747E-04
  0.201000005      -1.70644606E-04
  0.211999997       3.51396098E-04
  0.223000005       2.74858867E-05
  0.233999997      -1.72661355E-04
  0.245000005       1.17414689E-04
  0.256000012       2.29600046E-04
  0.266999990      -2.55999097E-04
  0.277999997      -3.56585952E-04
  0.289000005       1.44705191E-04
  0.300000012       4.84610006E-04
  0.310999990      -1.35399110E-04
  0.321999997      -5.15175459E-04
  0.333000004       9.02243773E-05
  0.344000012       7.43403740E-04
  0.354999989      -2.30618010E-04
  0.365999997      -7.91046536E-04
  0.377000004       7.28115963E-04
  0.388000011       3.02491215E-04
  0.398999989      -1.22337381E-03
  0.409999996       5.03256102E-04
  0.421000004       1.25472422E-03
  0.432000011      -1.17169460E-03
  0.442999989      -7.99184025E-04
  0.453999996       1.11436693E-03
  0.465000004       3.64768523E-04
  0.476000011      -8.34186911E-04
  0.486999989      -5.61644702E-05
  0.497999996       6.16229838E-04
  0.509000003       1.96363573E-04
  0.519999981      -4.75068635E-04
  0.531000018      -3.25482717E-04
  0.541999996       3.03348235E-04
  0.552999973       4.65275836E-04
  0.564000010      -7.73157401E-04
  0.574999988      -1.50973530E-04
  0.586000025       1.02714601E-03
  0.597000003       1.60027912E-06
  0.607999980      -1.43465155E-03
  0.619000018       1.15713757E-03
  0.629999995       9.67114000E-04
  0.640999973      -2.29118904E-03
  0.652000010      -2.57915963E-04
  0.662999988       2.36206804E-03
  0.674000025      -3.70607100E-04
  0.685000002      -1.10020873E-03
  0.695999980       1.14604516E-03
  0.707000017       1.36466071E-04
  0.717999995      -2.31243810E-03
  0.728999972       3.38657468E-04
  0.740000010       1.52436423E-03
  0.750999987      -2.15537875E-04
  0.762000024       4.83910902E-04
  0.773000002       2.28652410E-04
  0.783999979      -1.64608180E-03
  0.795000017      -3.52281000E-04
  0.805999994       1.75800116E-03
  0.816999972       3.18475126E-04
  0.828000009      -1.21982861E-03
  0.838999987      -1.62088487E-04
  0.850000024       4.99060610E-04
  0.861000001       1.18498108E-04
  0.871999979      -3.33259261E-04
  0.883000016      -5.08341356E-04
  0.893999994       5.06613520E-04
  0.904999971       7.39563082E-04
  0.916000009      -7.38419243E-04
  0.926999986      -6.48125366E-04
  0.938000023       1.26365421E-03
  0.949000001       7.34591566E-04
  0.959999979      -1.59755943E-03
  0.971000016      -4.34647634E-04
  0.981999993       1.36578770E-03
  0.992999971      -4.41329117E-04
   1.00399995      -1.12118304E-03
   1.01499999       1.37908536E-03
   1.02600002       9.19663114E-04
   1.03699994      -1.97683088E-03
   1.04799998      -6.32595445E-04
   1.05900002       2.03429023E-03
   1.07000005       3.62730905E-04
   1.08099997      -1.72964192E-03
   1.09200001      -4.70144150E-05
   1.10300004       1.40697125E-03
   1.11399996      -4.46382823E-04
   1.12500000      -1.35134370E-03
   1.13600004       1.03670568E-03
   1.14699996       1.66836730E-03
   1.15799999      -1.48139917E-03
   1.16900003      -1.98192731E-03
   1.17999995       1.58435479E-03
   1.19099998       1.64590811E-03
   1.20200002      -1.55490683E-03
   1.21300006      -4.50379739E-04
   1.22399998       1.90440146E-03
   1.23500001      -7.21685588E-04
   1.24600005      -2.16599600E-03
   1.25699997       1.15770905E-03
   1.26800001       1.48829038E-03
   1.27900004      -1.29783608E-03
   1.28999996      -3.22914508E-04
   1.30100000       1.24651415E-03
   1.31200004      -4.79480659E-04
   1.32299995      -6.23797881E-04
   1.33399999       7.82648858E-04
   1.34500003      -4.67948703E-04
   1.35599995      -8.12232611E-04
   1.36699998       1.34474004E-03
   1.37800002       6.20002043E-04
   1.38900006      -1.35856250E-03
