 -0.800000012       0.00000000
 -0.788999975       0.00000000
 -0.777999997      -1.47472710E-08
 -0.767000020       6.94914988E-08
 -0.755999982       6.12896827E-08
 -0.745000005      -5.78375136E-07
 -0.734000027       2.25852865E-08
 -0.722999990       2.35762604E-06
 -0.712000012      -7.74820819E-07
 -0.700999975      -5.84531563E-06
 -0.689999998       3.80676511E-06
 -0.679000020       1.01818441E-05
 -0.667999983      -1.24689295E-05
 -0.657000005      -1.48579556E-05
 -0.646000028       2.90590742E-05
 -0.634999990       2.27428045E-05
 -0.624000013      -4.53930661E-05
 -0.612999976      -3.21683801E-05
 -0.601999998       4.50091866E-05
 -0.591000021       2.70331402E-05
 -0.579999983      -2.82721739E-05
 -0.569000006       3.84002897E-06
 -0.558000028       2.28802801E-05
 -0.546999991      -2.75508482E-05
 -0.536000013      -2.94038527E-05
 -0.524999976       1.24388080E-05
 -0.513999999       1.88747090E-05
 -0.503000021       1.18757735E-05
 -0.492000014      -2.01224011E-05
 -0.481000006      -3.70216330E-05
 -0.469999999       8.52540543E-05
 -0.458999991       1.51044194E-04
 -0.448000014      -9.21216779E-05
 -0.437000006      -2.93024787E-04
 -0.425999999      -1.10459259E-04
 -0.414999992       8.27894110E-05
 -0.404000014       2.65520302E-05
 -0.393000007      -1.26349260E-05
 -0.381999999      -5.68587202E-05
 -0.370999992      -2.70050281E-04
 -0.360000014      -3.34435201E-04
 -0.349000007      -1.56222959E-04
 -0.338000000      -2.04382319E-04
 -0.326999992      -5.62199042E-04
 -0.316000015      -8.80433829E-04
 -0.305000007      -1.08579628E-03
 -0.294000000      -1.19342515E-03
 -0.282999992      -1.24593952E-03
 -0.272000015      -1.66190881E-03
 -0.261000007      -2.57083937E-03
 -0.250000000      -3.41503834E-03
 -0.238999993      -4.03256482E-03
 -0.228000000      -4.90457658E-03
 -0.216999993      -6.12583291E-03
 -0.206000000      -7.54107069E-03
 -0.194999993      -9.40405950E-03
 -0.184000000      -1.17653385E-02
 -0.172999993      -1.41986310E-02
 -0.162000000      -1.67046171E-02
 -0.150999993      -1.97493974E-02
 -0.140000001      -2.34105941E-02
 -0.128999993      -2.74264142E-02
 -0.118000001      -3.17251533E-02
 -0.107000001      -3.63434702E-02
  -9.60000008E-02  -4.12428454E-02
  -8.50000009E-02  -4.63765413E-02
  -7.40000010E-02  -5.16724400E-02
  -6.30000010E-02  -5.70396855E-02
  -5.20000011E-02  -6.24234937E-02
  -4.10000011E-02  -6.76575899E-02
  -2.99999993E-02  -7.24092871E-02
  -1.89999994E-02  -7.64753148E-02
  -8.00000038E-03  -7.99272433E-02
   3.00000003E-03  -8.28199685E-02
   1.40000004E-02  -8.50196257E-02
   2.50000004E-02  -8.64759535E-02
   3.59999985E-02  -8.73802975E-02
   4.69999984E-02  -8.79212990E-02
   5.79999983E-02  -8.82962421E-02
   6.89999983E-02  -8.91411453E-02
   7.99999982E-02  -9.14971530E-02
   9.09999982E-02  -9.62754190E-02
  0.101999998     -0.104262263
  0.112999998     -0.116594322
  0.123999998     -0.134727880
  0.135000005     -0.160108477
  0.145999998     -0.194241956
  0.157000005     -0.238749102
  0.167999998     -0.294959694
  0.179000005     -0.363670677
  0.189999998     -0.445422083
  0.201000005     -0.540563762
  0.211999997     -0.648752630
  0.223000005     -0.768639743
  0.233999997     -0.898081362
  0.245000005      -1.03413939
  0.256000012      -1.17275894
  0.266999990      -1.30884480
  0.277999997      -1.43648696
  0.289000005      -1.54878211
  0.300000012      -1.63795257
  0.310999990      -1.69603252
  0.321999997      -1.71509397
  0.333000004      -1.68709373
  0.344000012      -1.60430944
  0.354999989      -1.46003854
  0.365999997      -1.24908066
  0.377000004     -0.968306959
  0.388000011     -0.616955698
  0.398999989     -0.196476847
  0.409999996      0.289080173
  0.421000004      0.832403481
  0.432000011       1.42313707
  0.442999989       2.04819894
  0.453999996       2.69156456
  0.465000004       3.33483267
  0.476000011       3.95841932
  0.486999989       4.54182577
  0.497999996       5.06381893
  0.509000003       5.50379038
  0.519999981       5.84297371
  0.531000018       6.06475401
  0.541999996       6.15537596
  0.552999973       6.10518265
  0.564000010       5.90915728
  0.574999988       5.56687737
  0.586000025       5.08275461
  0.597000003       4.46637583
  0.607999980       3.73223758
  0.619000018       2.89891410
  0.629999995       1.98839819
  0.640999973       1.02567422
  0.652000010       3.77423465E-02
  0.662999988     -0.947750509
  0.674000025      -1.90347314
  0.685000002      -2.80329156
  0.695999980      -3.62349701
  0.707000017      -4.34365463
  0.717999995      -4.94693375
  0.728999972      -5.42072105
  0.740000010      -5.75731277
  0.750999987      -5.95391798
  0.762000024      -6.01227283
  0.773000002      -5.93837118
  0.783999979      -5.74213743
  0.795000017      -5.43684006
  0.805999994      -5.03828335
  0.816999972      -4.56397533
  0.828000009      -4.03249836
  0.838999987      -3.46279311
  0.850000024      -2.87317538
  0.861000001      -2.28075194
  0.871999979      -1.70122004
  0.883000016      -1.14829516
  0.893999994     -0.633155406
  0.904999971     -0.164588049
  0.916000009      0.250873178
  0.926999986      0.609242976
  0.938000023      0.908972204
  0.949000001       1.15035558
  0.959999979       1.33523619
  0.971000016       1.46697724
  0.981999993       1.55018961
  0.992999971       1.59020615
   1.00399995       1.59262931
   1.01499999       1.56324983
   1.02600002       1.50807953
   1.03699994       1.43291748
   1.04799998       1.34287703
   1.05900002       1.24260414
   1.07000005       1.13648784
   1.08099997       1.02823079
   1.09200001      0.920709908
   1.10300004      0.816414058
   1.11399996      0.717413902
   1.12500000      0.624975383
   1.13600004      0.539811909
   1.14699996      0.462559760
   1.15799999      0.393605083
   1.16900003      0.332759529
   1.17999995      0.279501468
   1.19099998      0.233361423
   1.20200002      0.193856999
   1.21300006      0.160286292
   1.22399998      0.131875008
   1.23500001      0.107980385
   1.24600005       8.79618749E-02
   1.25699997       7.11015463E-02
   1.26800001       5.68243675E-02
   1.27900004       4.47597429E-02
   1.28999996       3.45800295E-02
   1.30100000       2.60010455E-02
   1.31200004       1.88094079E-02
   1.32299995       1.27855362E-02
   1.33399999       7.78074889E-03
   1.34500003       3.75994039E-03
   1.35599995       6.29681628E-04
   1.36699998      -1.71509350E-03
   1.37800002      -3.23744607E-03
   1.38900006      -3.97969270E-03
