 -0.800000012       0.00000000
 -0.788999975       0.00000000
 -0.777999997       0.00000000
 -0.767000020       0.00000000
 -0.755999982       1.90506334E-26
 -0.745000005      -1.23663380E-20
 -0.734000027       1.08581311E-19
 -0.722999990      -3.72928258E-18
 -0.712000012       8.26402153E-18
 -0.700999975       4.04202501E-17
 -0.689999998      -1.80267749E-16
 -0.679000020       7.14734739E-17
 -0.667999983       7.80467963E-16
 -0.657000005      -2.01168800E-15
 -0.646000028       4.65907720E-16
 -0.634999990       8.46356253E-15
 -0.624000013      -8.10230043E-15
 -0.612999976      -1.76199489E-14
 -0.601999998       2.39986508E-14
 -0.591000021       2.00487566E-14
 -0.579999983      -3.56741648E-14
 -0.569000006      -2.54965853E-15
 -0.558000028       1.93414807E-14
 -0.546999991      -4.54030734E-14
 -0.536000013       4.61065139E-14
 -0.524999976       1.15600387E-13
 -0.513999999      -1.50975681E-13
 -0.503000021      -1.59583596E-13
 -0.492000014       1.58413796E-13
 -0.481000006       1.06203634E-13
 -0.469999999       1.35074298E-13
 -0.458999991      -2.37139572E-13
 -0.448000014      -1.04042155E-12
 -0.437000006       8.95705710E-13
 -0.425999999       2.60538487E-12
 -0.414999992      -2.34694339E-12
 -0.404000014      -3.92764467E-12
 -0.393000007       5.06005307E-12
 -0.381999999       3.14268490E-12
 -0.370999992      -8.88747236E-12
 -0.360000014       1.39853580E-12
 -0.349000007       1.21561919E-11
 -0.338000000      -7.97691080E-12
 -0.326999992      -1.13891709E-11
 -0.316000015       1.32838098E-11
 -0.305000007       6.80341981E-12
 -0.294000000      -1.34326205E-11
 -0.282999992      -2.59788935E-12
 -0.272000015       9.33962369E-12
 -0.261000007       7.68721198E-12
 -0.250000000      -1.49935411E-11
 -0.238999993      -3.90411661E-11
 -0.228000000       5.43498545E-11
 -0.216999993       1.28344821E-10
 -0.206000000      -1.08016242E-10
 -0.194999993      -2.76188100E-10
 -0.184000000       8.78360371E-11
 -0.172999993       3.66002284E-10
 -0.162000000       5.75262477E-11
 -0.150999993      -2.53424559E-10
 -0.140000001      -2.74369499E-10
 -0.128999993      -1.04677558E-10
 -0.118000001       3.41685957E-10
 -0.107000001       3.62597063E-10
  -9.60000008E-02  -3.09727743E-10
  -8.50000009E-02  -3.07656622E-10
  -7.40000010E-02   4.70875838E-10
  -6.30000010E-02   1.91846580E-10
  -5.20000011E-02  -9.62507296E-10
  -4.10000011E-02  -7.44204032E-10
  -2.99999993E-02   1.05766507E-09
  -1.89999994E-02   1.66756098E-09
  -8.00000038E-03  -3.57195884E-10
   3.00000003E-03  -2.33990827E-09
   1.40000004E-02  -3.75514730E-10
   2.50000004E-02   2.99835134E-09
   3.59999985E-02   1.22520560E-09
   4.69999984E-02  -3.46197204E-09
   5.79999983E-02  -2.46452392E-09
   6.89999983E-02   2.39777953E-09
   7.99999982E-02   3.19724069E-09
   9.09999982E-02   9.72807501E-10
  0.101999998       1.28984645E-09
  0.112999998       7.61911145E-10
  0.123999998      -3.81255205E-09
  0.135000005      -5.40591705E-09
  0.145999998       3.46903484E-09
  0.157000005       1.07260343E-08
  0.167999998       3.95731403E-09
  0.179000005      -1.15900809E-08
  0.189999998      -1.30367788E-08
  0.201000005       2.59084909E-09
  0.211999997       1.14928254E-08
  0.223000005       7.72741160E-09
  0.233999997      -8.62289740E-10
  0.245000005      -1.31027091E-08
  0.256000012      -1.37085685E-08
  0.266999990       1.55179392E-09
  0.277999997       1.22006014E-08
  0.289000005       6.06239459E-09
  0.300000012      -8.41947045E-09
  0.310999990      -2.15492779E-08
  0.321999997      -1.83716453E-09
  0.333000004       3.49977149E-08
  0.344000012       1.93094607E-08
  0.354999989      -2.43090597E-08
  0.365999997      -1.31319728E-08
  0.377000004       3.29659550E-10
  0.388000011      -2.45946001E-08
  0.398999989      -6.97155489E-09
  0.409999996       1.92259417E-08
  0.421000004      -1.00881969E-08
  0.432000011      -3.03932417E-08
  0.442999989      -1.20587655E-08
  0.453999996      -2.28264643E-10
  0.465000004       6.61803501E-09
  0.476000011       3.33528725E-08
  0.486999989       1.89680982E-08
  0.497999996      -2.96793878E-08
  0.509000003      -1.95179108E-08
  0.519999981       2.92609297E-08
  0.531000018      -1.19844099E-08
  0.541999996      -1.25515864E-08
  0.552999973       3.83272294E-08
  0.564000010       3.05426240E-10
  0.574999988      -2.41518645E-08
  0.586000025      -9.21785581E-09
  0.597000003      -2.75579879E-08
  0.607999980      -3.57573562E-08
  0.619000018       1.80820177E-08
  0.629999995       8.32266167E-09
  0.640999973      -4.73488200E-08
  0.652000010      -1.00188036E-08
  0.662999988       3.13643582E-08
  0.674000025       1.00118625E-08
  0.685000002       2.52059458E-08
  0.695999980       7.13296870E-08
  0.707000017       6.38623432E-10
  0.717999995      -6.23881817E-08
  0.728999972      -4.03979499E-08
  0.740000010      -1.15878169E-08
  0.750999987       1.12935830E-08
  0.762000024      -5.04908790E-08
  0.773000002      -1.24684860E-07
  0.783999979      -7.31001348E-09
  0.795000017       1.34924093E-07
  0.805999994       7.78981146E-08
  0.816999972      -4.79695643E-08
  0.828000009      -3.49093163E-08
  0.838999987       5.08306748E-08
  0.850000024       8.04318834E-09
  0.861000001       2.47466648E-11
  0.871999979       3.41991999E-08
  0.883000016      -4.45900774E-08
  0.893999994      -1.09417982E-07
  0.904999971       3.04517087E-08
  0.916000009       1.41771650E-07
  0.926999986       2.59543746E-08
  0.938000023      -3.89284622E-08
  0.949000001       7.78300659E-08
  0.959999979       4.78555187E-08
  0.971000016      -1.10498981E-07
  0.981999993      -3.72770970E-08
  0.992999971       1.01150171E-07
   1.00399995      -5.46965744E-08
   1.01499999      -1.73158696E-07
   1.02600002      -1.42097765E-08
   1.03699994       2.40319586E-08
   1.04799998      -4.64003129E-08
   1.05900002       5.81385500E-08
   1.07000005       6.10311304E-08
   1.08099997      -1.21082977E-07
   1.09200001      -3.94325639E-08
   1.10300004       1.53292348E-07
   1.11399996       1.43652974E-08
   1.12500000      -7.63351622E-08
   1.13600004       1.23506695E-07
   1.14699996       8.28890947E-08
   1.15799999      -1.50104157E-07
   1.16900003      -5.99410299E-08
   1.17999995       8.51874660E-08
   1.19099998      -3.90964487E-08
   1.20200002      -3.14384607E-08
   1.21300006       1.71193832E-07
   1.22399998       8.45258086E-08
   1.23500001      -1.42041060E-07
   1.24600005      -8.35864213E-08
   1.25699997      -5.11756904E-09
   1.26800001      -9.83449837E-08
   1.27900004       2.46554137E-08
   1.28999996       2.49195722E-07
   1.30100000       6.97357905E-08
   1.31200004      -1.63660019E-07
   1.32299995      -1.63831917E-08
   1.33399999       4.19306545E-08
   1.34500003      -1.62153071E-07
   1.35599995      -8.48943387E-08
   1.36699998       1.39549755E-07
   1.37800002       9.69013403E-09
   1.38900006      -9.42985068E-08
