 -0.800000012       0.00000000
 -0.788999975       0.00000000
 -0.777999997       0.00000000
 -0.767000020       5.66972200E-24
 -0.755999982       5.87220288E-24
 -0.745000005      -1.03532764E-16
 -0.734000027      -3.10202497E-16
 -0.722999990      -1.11490421E-16
 -0.712000012      -3.23218985E-15
 -0.700999975       5.06817378E-15
 -0.689999998      -6.10261510E-16
 -0.679000020       6.26189181E-15
 -0.667999983      -2.17831251E-15
 -0.657000005      -3.64950820E-14
 -0.646000028       3.81999899E-14
 -0.634999990       1.91131887E-13
 -0.624000013      -1.54032779E-13
 -0.612999976      -5.05738409E-13
 -0.601999998       5.02172414E-13
 -0.591000021       6.58976400E-13
 -0.579999983      -9.77702511E-13
 -0.569000006      -5.29896710E-13
 -0.558000028       1.24308712E-12
 -0.546999991      -3.16749448E-13
 -0.536000013      -8.07019761E-13
 -0.524999976       2.28841013E-12
 -0.513999999       5.25988161E-13
 -0.503000021      -3.27777844E-12
 -0.492000014      -1.27084671E-12
 -0.481000006       4.89967658E-13
 -0.469999999       1.06141528E-12
 -0.458999991       1.98601118E-12
 -0.448000014       9.87311036E-13
 -0.437000006       1.25633549E-11
 -0.425999999       1.20166854E-12
 -0.414999992      -5.67467878E-11
 -0.404000014      -2.58729392E-11
 -0.393000007       9.64580429E-11
 -0.381999999       6.15319462E-11
 -0.370999992      -6.75587919E-11
 -0.360000014      -7.30823319E-11
 -0.349000007      -5.50752846E-11
 -0.338000000       8.94585378E-11
 -0.326999992       2.49579718E-10
 -0.316000015      -1.75624834E-10
 -0.305000007      -3.95622451E-10
 -0.294000000       3.60506541E-10
 -0.282999992       2.55085897E-10
 -0.272000015      -5.91300398E-10
 -0.261000007       3.17379345E-10
 -0.250000000       6.68461508E-10
 -0.238999993      -1.08826936E-09
 -0.228000000      -2.92600610E-10
 -0.216999993       1.69532477E-09
 -0.206000000      -1.11399050E-10
 -0.194999993      -1.44092260E-09
 -0.184000000      -3.94480504E-10
 -0.172999993      -4.22934993E-10
 -0.162000000       1.33532985E-09
 -0.150999993       2.87231550E-09
 -0.140000001      -2.28112373E-09
 -0.128999993      -3.85200227E-09
 -0.118000001       2.21533392E-09
 -0.107000001       5.41887368E-10
  -9.60000008E-02  -3.41114870E-09
  -8.50000009E-02   5.35907985E-09
  -7.40000010E-02   4.62399141E-09
  -6.30000010E-02  -9.40956557E-09
  -5.20000011E-02  -4.31576641E-09
  -4.10000011E-02   9.33362276E-09
  -2.99999993E-02   2.69818301E-09
  -1.89999994E-02  -4.56162247E-10
  -8.00000038E-03   2.64054956E-09
   3.00000003E-03  -6.52748344E-09
   1.40000004E-02  -3.22628346E-09
   2.50000004E-02   9.49163503E-09
   3.59999985E-02  -1.75734205E-09
   4.69999984E-02  -5.44275158E-09
   5.79999983E-02   4.16617274E-09
   6.89999983E-02  -4.03192635E-09
   7.99999982E-02  -9.33930622E-09
   9.09999982E-02   7.46648610E-09
  0.101999998       6.61486022E-09
  0.112999998      -1.19772958E-09
  0.123999998      -5.77003245E-09
  0.135000005      -1.18135501E-08
  0.145999998      -5.87897464E-09
  0.157000005       3.08739589E-09
  0.167999998       5.00513186E-09
  0.179000005       1.13364163E-08
  0.189999998       2.49314791E-08
  0.201000005       1.28798989E-08
  0.211999997      -2.32660948E-08
  0.223000005      -3.95247497E-08
  0.233999997      -5.96432814E-09
  0.245000005       1.14900143E-08
  0.256000012       5.12001108E-09
  0.266999990       3.47233104E-08
  0.277999997       3.02858858E-08
  0.289000005      -3.63133523E-09
  0.300000012      -1.72584382E-08
  0.310999990      -5.98943473E-09
  0.321999997      -1.47740291E-08
  0.333000004      -1.39612677E-08
  0.344000012       2.25965433E-08
  0.354999989      -2.28229791E-08
  0.365999997      -1.75090218E-08
  0.377000004       1.94777332E-08
  0.388000011      -4.07920417E-08
  0.398999989      -5.66746472E-08
  0.409999996       4.81211693E-08
  0.421000004       4.90766965E-08
  0.432000011      -5.85957913E-08
  0.442999989      -3.48353630E-08
  0.453999996       3.79050036E-08
  0.465000004      -3.46689966E-08
  0.476000011      -3.57187062E-08
  0.486999989       8.39918286E-08
  0.497999996       6.57429382E-08
  0.509000003      -1.44566616E-08
  0.519999981       6.44990505E-09
  0.531000018       1.87377776E-08
  0.541999996      -9.17185972E-08
  0.552999973      -8.54529532E-08
  0.564000010       4.94078094E-08
  0.574999988       6.99101150E-08
  0.586000025      -6.86286228E-08
  0.597000003      -1.04788406E-07
  0.607999980      -1.41611363E-08
  0.619000018       1.12864758E-08
  0.629999995       3.42802897E-09
  0.640999973       1.13893686E-08
  0.652000010       6.09523099E-08
  0.662999988       5.93670109E-08
  0.674000025      -9.02634909E-08
  0.685000002      -1.87743554E-09
  0.695999980       1.66187817E-07
  0.707000017       5.34583755E-08
  0.717999995      -1.08862125E-07
  0.728999972      -4.00084232E-08
  0.740000010       2.20822791E-08
  0.750999987      -1.26463195E-08
  0.762000024      -2.98449399E-09
  0.773000002       7.42589679E-09
  0.783999979       1.08287615E-10
  0.795000017      -1.09846461E-08
  0.805999994      -4.90859868E-08
  0.816999972      -1.80974311E-08
  0.828000009       1.09825720E-07
  0.838999987       3.23848575E-08
  0.850000024      -5.54661099E-08
  0.861000001       7.78431613E-08
  0.871999979       4.22589856E-08
  0.883000016      -8.92080720E-08
  0.893999994       3.04494918E-08
  0.904999971       7.62813386E-08
  0.916000009      -1.65683858E-07
  0.926999986      -2.04322006E-07
  0.938000023       2.90627113E-08
  0.949000001       8.37055936E-08
  0.959999979       6.62137865E-08
  0.971000016       1.79113087E-07
  0.981999993       1.46685352E-07
  0.992999971      -1.52885917E-07
   1.00399995      -3.23074602E-07
   1.01499999      -1.57076713E-07
   1.02600002      -7.62356578E-09
   1.03699994      -5.92630016E-08
   1.04799998       1.10219052E-08
   1.05900002       2.24894265E-07
   1.07000005       1.30743871E-07
   1.08099997      -1.10419457E-07
   1.09200001       9.17983822E-09
   1.10300004       1.22715875E-07
   1.11399996      -1.26675531E-07
   1.12500000      -1.13970060E-07
   1.13600004       2.28496830E-07
   1.14699996       1.19477619E-07
   1.15799999      -1.85150526E-07
   1.16900003       1.62578626E-08
   1.17999995       1.81522438E-07
   1.19099998      -1.41512245E-07
   1.20200002      -2.37117973E-07
   1.21300006       8.85816576E-08
   1.22399998       1.35973409E-07
   1.23500001      -9.10321845E-08
   1.24600005      -2.13617160E-08
   1.25699997       2.11159019E-07
   1.26800001       1.10417474E-07
   1.27900004      -1.66118596E-07
   1.28999996      -1.45475255E-07
   1.30100000       2.42365186E-08
   1.31200004      -6.18545570E-08
   1.32299995      -1.41027670E-07
   1.33399999       9.87001769E-08
   1.34500003       2.03993650E-07
   1.35599995      -3.65942334E-08
   1.36699998      -1.02691168E-07
   1.37800002       3.26050049E-08
   1.38900006      -4.33328680E-08
