 -0.800000012       0.00000000
 -0.788999975       0.00000000
 -0.777999997       0.00000000
 -0.767000020       5.04861242E-26
 -0.755999982      -1.26017972E-17
 -0.745000005       1.18689623E-17
 -0.734000027      -4.09098782E-16
 -0.722999990       1.95959881E-17
 -0.712000012      -4.85362743E-16
 -0.700999975      -9.00165868E-17
 -0.689999998       2.94043485E-15
 -0.679000020      -9.72716358E-17
 -0.667999983      -3.41308623E-15
 -0.657000005      -2.63224619E-14
 -0.646000028      -1.20869814E-14
 -0.634999990       1.44834350E-14
 -0.624000013       1.85290998E-14
 -0.612999976      -7.32022051E-15
 -0.601999998       6.72367236E-16
 -0.591000021      -4.03656431E-14
 -0.579999983      -8.54455802E-14
 -0.569000006       6.75905322E-14
 -0.558000028       5.19014051E-14
 -0.546999991      -1.49748161E-13
 -0.536000013       8.38425737E-14
 -0.524999976       1.89310752E-13
 -0.513999999      -3.74754562E-13
 -0.503000021      -2.21738291E-13
 -0.492000014       4.51141511E-13
 -0.481000006       4.41100776E-14
 -0.469999999       7.16999227E-14
 -0.458999991      -4.13717251E-14
 -0.448000014      -1.47772506E-12
 -0.437000006       5.83220213E-13
 -0.425999999       2.42216555E-12
 -0.414999992      -2.49342300E-12
 -0.404000014      -9.91410187E-13
 -0.393000007       5.84628266E-12
 -0.381999999      -3.93266409E-12
 -0.370999992      -7.73039965E-12
 -0.360000014       9.28344034E-12
 -0.349000007       4.62244262E-12
 -0.338000000      -8.84296109E-12
 -0.326999992       1.62428816E-12
 -0.316000015      -8.67672145E-13
 -0.305000007      -2.17683163E-11
 -0.294000000       1.10356646E-11
 -0.282999992       3.32993529E-11
 -0.272000015       1.12802658E-11
 -0.261000007       7.42354182E-12
 -0.250000000      -5.66332085E-11
 -0.238999993      -8.46794301E-11
 -0.228000000       5.07453454E-11
 -0.216999993       8.14475362E-11
 -0.206000000       1.15082256E-10
 -0.194999993       2.46009237E-11
 -0.184000000      -3.31832728E-10
 -0.172999993      -8.47130179E-12
 -0.162000000       2.54819971E-10
 -0.150999993      -3.92359895E-10
 -0.140000001      -9.26030697E-10
 -0.128999993       5.17162646E-10
 -0.118000001       1.13034282E-09
 -0.107000001      -2.42728809E-10
  -9.60000008E-02  -4.22164831E-10
  -8.50000009E-02  -3.92540889E-10
  -7.40000010E-02  -8.23754898E-10
  -6.30000010E-02  -9.04650910E-10
  -5.20000011E-02   1.67516956E-09
  -4.10000011E-02   5.36800326E-10
  -2.99999993E-02  -1.64766878E-09
  -1.89999994E-02   2.79753132E-09
  -8.00000038E-03   1.90623162E-09
   3.00000003E-03  -1.01966764E-08
   1.40000004E-02  -5.18568388E-09
   2.50000004E-02   1.20452146E-08
   3.59999985E-02   1.03143405E-08
   4.69999984E-02  -4.20167190E-09
   5.79999983E-02  -8.55852011E-09
   6.89999983E-02  -4.53795890E-09
   7.99999982E-02  -1.91094252E-09
   9.09999982E-02  -4.06299383E-10
  0.101999998       2.12997420E-09
  0.112999998       3.05808712E-09
  0.123999998       1.93451766E-09
  0.135000005       5.33401012E-09
  0.145999998       1.32629963E-09
  0.157000005      -6.07805806E-09
  0.167999998      -5.07815301E-09
  0.179000005       5.39779998E-09
  0.189999998       1.45784904E-08
  0.201000005       6.27050301E-10
  0.211999997      -2.20761667E-08
  0.223000005      -1.49183332E-08
  0.233999997       1.37376954E-08
  0.245000005       1.43128398E-08
  0.256000012      -9.03350006E-10
  0.266999990       1.16340759E-08
  0.277999997       3.13311297E-08
  0.289000005       1.81254911E-09
  0.300000012      -2.00838794E-08
  0.310999990       6.20614626E-09
  0.321999997       1.10872618E-08
  0.333000004      -1.31212223E-08
  0.344000012      -2.28155379E-08
  0.354999989      -1.57907163E-08
  0.365999997      -1.29765301E-08
  0.377000004      -3.28441851E-09
  0.388000011       7.02939817E-10
  0.398999989      -5.34060396E-09
  0.409999996      -1.49469559E-09
  0.421000004       1.42062166E-08
  0.432000011      -1.39242828E-09
  0.442999989      -1.64143596E-08
  0.453999996       7.64195818E-09
  0.465000004      -7.77399212E-09
  0.476000011      -1.86766957E-08
  0.486999989       2.08456452E-08
  0.497999996       2.84273742E-08
  0.509000003      -9.28491062E-09
  0.519999981       1.14120835E-09
  0.531000018       2.79705326E-08
  0.541999996      -1.56237743E-08
  0.552999973      -3.34930306E-08
  0.564000010       4.92256156E-08
  0.574999988       7.72699309E-08
  0.586000025       4.04337008E-09
  0.597000003      -1.96764827E-08
  0.607999980       5.53512169E-09
  0.619000018      -3.50390863E-08
  0.629999995      -3.99525604E-08
  0.640999973       1.97813961E-08
  0.652000010       6.44645137E-09
  0.662999988      -2.58863562E-08
  0.674000025       1.07415756E-08
  0.685000002       4.43606680E-08
  0.695999980      -3.85336669E-08
  0.707000017      -1.09451406E-07
  0.717999995      -3.58874956E-08
  0.728999972       1.38209968E-08
  0.740000010      -1.96074463E-08
  0.750999987       1.51588697E-08
  0.762000024       8.75522872E-08
  0.773000002       3.36727304E-08
  0.783999979      -5.10276159E-08
  0.795000017      -4.31126601E-08
  0.805999994       8.81129836E-09
  0.816999972       1.30656241E-08
  0.828000009      -2.24095986E-09
  0.838999987      -5.69965852E-09
  0.850000024      -1.26696547E-08
  0.861000001      -2.32515038E-08
  0.871999979      -3.41865842E-08
  0.883000016      -2.74512999E-08
  0.893999994       1.00082795E-08
  0.904999971       4.50991031E-08
  0.916000009       5.47085506E-08
  0.926999986       4.49455975E-08
  0.938000023       2.65863385E-08
  0.949000001       5.25146593E-09
  0.959999979       8.85813911E-09
  0.971000016      -1.30188227E-09
  0.981999993      -8.29358839E-08
  0.992999971      -1.24199985E-07
   1.00399995      -1.61610600E-08
   1.01499999       7.42294617E-08
   1.02600002       1.94584064E-08
   1.03699994       2.07045145E-10
   1.04799998       9.14102856E-08
   1.05900002       1.00995642E-07
   1.07000005      -1.63030123E-09
   1.08099997      -6.34483470E-08
   1.09200001      -5.91149565E-08
   1.10300004      -4.42481607E-08
   1.11399996      -3.87090111E-08
   1.12500000      -5.20537959E-08
   1.13600004      -3.29885808E-08
   1.14699996       4.45862973E-08
   1.15799999       4.41470007E-08
   1.16900003      -5.96690910E-08
   1.17999995      -5.88465845E-08
   1.19099998       5.13254079E-08
   1.20200002       4.56692355E-08
   1.21300006      -3.49336382E-08
   1.22399998       2.07545536E-09
   1.23500001       7.42198196E-08
   1.24600005       3.60446712E-08
   1.25699997      -3.74777116E-08
   1.26800001      -5.93290856E-08
   1.27900004      -4.64552876E-08
   1.28999996      -1.78850552E-08
   1.30100000      -3.40783113E-09
   1.31200004       3.03753311E-09
   1.32299995       6.99747105E-08
   1.33399999       1.39356970E-07
   1.34500003       7.40176134E-08
   1.35599995      -4.52361490E-08
   1.36699998      -4.40700880E-08
   1.37800002       1.87749194E-08
   1.38900006      -1.89913818E-09
