 -0.959999979       0.00000000
 -0.925000012      -5.45390809E-20
 -0.889999986       0.00000000
 -0.855000019       1.62407518E-11
 -0.819999993       6.53841495E-11
 -0.785000026      -2.17991625E-10
 -0.750000000      -2.52131233E-11
 -0.714999974       2.36253846E-11
 -0.680000007       2.77415424E-09
 -0.644999981       8.13797640E-10
 -0.610000014      -1.65123044E-08
 -0.574999988       5.32804023E-09
 -0.540000021       6.49813288E-08
 -0.504999995      -2.84702022E-08
 -0.469999999      -4.99132753E-08
 -0.435000002      -4.36741594E-08
 -0.400000006       1.99579091E-08
 -0.365000010      -2.28005447E-07
 -0.330000013       4.77267349E-07
 -0.294999987      -5.94825565E-07
 -0.259999990       1.80868210E-06
 -0.224999994       1.14202680E-06
 -0.189999998      -7.64238484E-06
 -0.155000001       1.18256389E-06
 -0.119999997       9.02936881E-06
  -8.50000009E-02  -4.99496309E-07
  -5.00000007E-02  -4.88664182E-06
  -1.49999997E-02  -4.82185987E-06
   1.99999996E-02   1.86197468E-07
   5.49999997E-02   9.02309330E-06
   9.00000036E-02  -2.31136892E-06
  0.125000000      -1.07974147E-05
  0.159999996       1.97582758E-05
  0.194999993       5.26219446E-06
  0.230000004      -3.03717461E-05
  0.264999986       2.34530376E-06
  0.300000012       3.89298366E-05
  0.335000008      -2.57889806E-05
  0.370000005      -3.45032968E-05
  0.405000001       2.52972259E-05
  0.439999998       3.00223273E-05
  0.474999994      -1.31913680E-06
  0.509999990      -2.72779598E-05
  0.545000017      -3.18617786E-05
  0.579999983       2.89203472E-05
  0.615000010       3.78673612E-05
  0.649999976      -1.78787905E-05
  0.685000002      -7.65165078E-06
  0.720000029       1.69539617E-05
  0.754999995      -3.31824886E-05
  0.790000021      -1.66591326E-05
  0.824999988       1.39346585E-05
  0.860000014       1.40770146E-06
  0.894999981       4.24620812E-05
  0.930000007       3.80067504E-05
  0.964999974      -1.03917446E-04
   1.00000000      -5.18244851E-05
   1.03499997       9.91650377E-05
   1.07000005       6.82042592E-05
   1.10500002      -4.65829544E-05
   1.13999999      -5.88895673E-05
   1.17499995      -3.76580397E-06
   1.21000004       4.32518973E-05
   1.24500000       5.45661751E-05
   1.27999997      -3.54445983E-05
   1.31500006      -7.36714937E-05
   1.35000002       6.25138864E-06
   1.38499999       1.88302911E-05
   1.41999996      -1.91636373E-05
   1.45500004       3.14461649E-05
   1.49000001       6.14180899E-05
   1.52499998      -3.22509823E-06
   1.55999994      -4.36210539E-05
   1.59500003      -3.98922275E-05
   1.63000000      -2.98916275E-05
