 -0.959999979       0.00000000
 -0.925000012      -1.33822183E-27
 -0.889999986       2.62771170E-25
 -0.855000019      -2.31032116E-24
 -0.819999993       4.88684301E-11
 -0.785000026      -4.62635374E-10
 -0.750000000      -2.21149765E-10
 -0.714999974      -1.14763266E-08
 -0.680000007       6.74312233E-08
 -0.644999981      -1.00507393E-07
 -0.610000014       6.73239953E-09
 -0.574999988       1.86854848E-07
 -0.540000021      -1.05905713E-07
 -0.504999995      -5.72515546E-08
 -0.469999999      -4.16718308E-07
 -0.435000002       3.81867949E-07
 -0.400000006       1.05359504E-06
 -0.365000010      -1.84661383E-06
 -0.330000013      -7.16392435E-07
 -0.294999987       4.06424442E-06
 -0.259999990       3.64600555E-06
 -0.224999994      -1.71332849E-05
 -0.189999998       1.32761697E-05
 -0.155000001       4.95933500E-06
 -0.119999997      -2.30183414E-05
  -8.50000009E-02   1.22744459E-05
  -5.00000007E-02   1.66753980E-05
  -1.49999997E-02  -8.41551173E-06
   1.99999996E-02   7.96328550E-06
   5.49999997E-02  -1.06402085E-05
   9.00000036E-02  -2.49768455E-05
  0.125000000       2.09676364E-05
  0.159999996       1.03395114E-05
  0.194999993      -2.79527903E-05
  0.230000004       2.97080223E-05
  0.264999986      -2.57224906E-06
  0.300000012      -8.79380968E-06
  0.335000008      -3.38109544E-06
  0.370000005      -5.26988060E-06
  0.405000001       2.57050870E-05
  0.439999998       1.92313837E-05
  0.474999994      -8.89201765E-05
  0.509999990       3.83982915E-05
  0.545000017       7.52311971E-05
  0.579999983      -1.01898120E-04
  0.615000010      -1.34421898E-05
  0.649999976       1.59364266E-04
  0.685000002      -8.41257206E-05
  0.720000029      -1.07886612E-04
  0.754999995       1.57770948E-04
  0.790000021      -6.73911854E-05
  0.824999988      -1.35839306E-04
  0.860000014       1.80131712E-04
  0.894999981       5.22785631E-05
  0.930000007      -1.97351794E-04
  0.964999974       1.01195634E-04
   1.00000000       1.46993785E-04
   1.03499997      -2.45282310E-04
   1.07000005      -3.59700971E-05
   1.10500002       2.49733654E-04
   1.13999999      -6.12101576E-05
   1.17499995      -1.43789293E-04
   1.21000004       1.27275896E-04
   1.24500000       2.92989680E-05
   1.27999997      -1.40830976E-04
   1.31500006       3.12314769E-05
   1.35000002       8.80247098E-05
   1.38499999      -3.94389026E-05
   1.41999996      -3.66920358E-05
   1.45500004       1.89186521E-05
   1.49000001       1.42432191E-05
   1.52499998      -5.99647547E-06
   1.55999994       2.18448781E-06
   1.59500003       4.42455894E-05
   1.63000000      -2.30143451E-06
