 -0.800000012       0.00000000
 -0.788999975      -1.49273593E-02
 -0.777999997      -1.36254299E-02
 -0.767000020       6.87019676E-02
 -0.755999982       3.10128685E-02
 -0.745000005     -0.144355118
 -0.734000027      -3.41655277E-02
 -0.722999990      0.186118409
 -0.712000012      -5.29625732E-03
 -0.700999975     -0.181482598
 -0.689999998       4.40390706E-02
 -0.679000020      0.104259111
 -0.667999983      -6.58786446E-02
 -0.657000005      -2.67610215E-02
 -0.646000028      -3.99901308E-02
 -0.634999990     -0.131834000
 -0.624000013       7.38831908E-02
 -0.612999976       7.03718215E-02
 -0.601999998     -0.292686433
 -0.591000021     -0.142136455
 -0.579999983      0.142389655
 -0.569000006     -0.275455415
 -0.558000028     -0.406849831
 -0.546999991       7.32441694E-02
 -0.536000013     -0.234533727
 -0.524999976     -0.874732316
 -0.513999999     -0.502985775
 -0.503000021     -0.317419708
 -0.492000014      -1.11128402
 -0.481000006      -1.31137598
 -0.469999999     -0.993515193
 -0.458999991      -1.63388801
 -0.448000014      -2.43433619
 -0.437000006      -2.54990292
 -0.425999999      -3.09655404
 -0.414999992      -4.03555822
 -0.404000014      -4.49679565
 -0.393000007      -5.36123371
 -0.381999999      -6.90595627
 -0.370999992      -7.89937401
 -0.360000014      -8.83470249
 -0.349000007      -10.7257786
 -0.338000000      -12.4371309
 -0.326999992      -13.5851679
 -0.316000015      -15.5367661
 -0.305000007      -17.8238068
 -0.294000000      -19.1754913
 -0.282999992      -20.5836945
 -0.272000015      -22.6633854
 -0.261000007      -24.0173073
 -0.250000000      -24.5006084
 -0.238999993      -25.1278992
 -0.228000000      -25.2452984
 -0.216999993      -24.0695782
 -0.206000000      -22.3005066
 -0.194999993      -19.8836250
 -0.184000000      -15.9217701
 -0.172999993      -10.7871265
 -0.162000000      -4.89511442
 -0.150999993       2.59441257
 -0.140000001       11.7166910
 -0.128999993       21.5164566
 -0.118000001       32.2157745
 -0.107000001       44.2832985
  -9.60000008E-02   56.8078461
  -8.50000009E-02   69.2681198
  -7.40000010E-02   82.1268921
  -6.30000010E-02   94.6981583
  -5.20000011E-02   105.752190
  -4.10000011E-02   115.438904
  -2.99999993E-02   123.777641
  -1.89999994E-02   129.545929
  -8.00000038E-03   132.266510
   3.00000003E-03   132.199539
   1.40000004E-02   128.607788
   2.50000004E-02   120.973869
   3.59999985E-02   109.971970
   4.69999984E-02   95.5225067
   5.79999983E-02   77.0419922
   6.89999983E-02   55.3669968
   7.99999982E-02   31.3821678
   9.09999982E-02   4.87832546
  0.101999998      -23.3714275
  0.112999998      -51.8088264
  0.123999998      -80.1998901
  0.135000005      -108.209404
  0.145999998      -134.094528
  0.157000005      -156.973114
  0.167999998      -176.910248
  0.179000005      -192.839096
  0.189999998      -203.786392
  0.201000005      -210.133377
  0.211999997      -211.626328
  0.223000005      -207.423798
  0.233999997      -198.162033
  0.245000005      -184.721191
  0.256000012      -166.845764
  0.266999990      -145.017868
  0.277999997      -120.658997
  0.289000005      -94.1714859
  0.300000012      -65.9061203
  0.310999990      -37.4588432
  0.321999997      -9.83251572
  0.333000004       17.0487671
  0.344000012       42.3346062
  0.354999989       64.7483826
  0.365999997       84.2318192
  0.377000004       100.721001
  0.388000011       113.364029
  0.398999989       122.194099
  0.409999996       127.918427
  0.421000004       130.213074
  0.432000011       128.796753
  0.442999989       124.672203
  0.453999996       118.410011
  0.465000004       109.727890
  0.476000011       99.3687286
  0.486999989       88.4027023
  0.497999996       76.5229416
  0.509000003       63.7485733
  0.519999981       51.4836121
  0.531000018       40.1230049
  0.541999996       28.9106007
  0.552999973       18.3671284
  0.564000010       9.36441898
  0.574999988       1.32666290
  0.586000025      -5.95407486
  0.597000003      -11.5935059
  0.607999980      -15.8268166
  0.619000018      -19.5296192
  0.629999995      -22.2758121
  0.640999973      -23.7011127
  0.652000010      -24.5238457
  0.662999988      -24.8005352
  0.674000025      -24.1296539
  0.685000002      -23.1813469
  0.695999980      -22.3479881
  0.707000017      -20.8677883
  0.717999995      -18.8422718
  0.728999972      -17.2066479
  0.740000010      -15.6740627
  0.750999987      -13.6760530
  0.762000024      -11.9006224
  0.773000002      -10.6481876
  0.783999979      -9.11660099
  0.795000017      -7.39000130
  0.805999994      -6.30905819
  0.816999972      -5.56779051
  0.828000009      -4.51595688
  0.838999987      -3.57521200
  0.850000024      -3.03917623
  0.861000001      -2.42442489
  0.871999979      -1.79126358
  0.883000016      -1.56659484
  0.893999994      -1.38123417
  0.904999971     -0.909230292
  0.916000009     -0.605544746
  0.926999986     -0.538167477
  0.938000023     -0.294826508
  0.949000001     -0.102176964
  0.959999979     -0.200887322
  0.971000016      -9.06328708E-02
  0.981999993      0.266405761
  0.992999971      0.235991076
   1.00399995      -3.85243073E-02
   1.01499999       1.83423385E-02
   1.02600002      0.144227356
   1.03699994       9.07311216E-03
   1.04799998      -4.03606668E-02
   1.05900002       3.77172716E-02
   1.07000005     -0.122985102
   1.08099997     -0.343497247
   1.09200001     -0.291305751
   1.10300004     -0.190802351
   1.11399996     -0.241420701
   1.12500000     -0.283784062
   1.13600004     -0.283131808
   1.14699996     -0.287488818
   1.15799999     -0.198284477
   1.16900003      -6.18271232E-02
   1.17999995      -4.92080003E-02
   1.19099998      -9.88261104E-02
   1.20200002      -7.16046244E-02
   1.21300006      -7.93610886E-03
   1.22399998       4.66108844E-02
   1.23500001      0.119304769
   1.24600005      0.155829027
   1.25699997       8.43793973E-02
   1.26800001      -1.03318831E-02
   1.27900004       2.22772285E-02
   1.28999996      0.153523907
   1.30100000      0.190176114
   1.31200004       9.38108638E-02
   1.32299995       4.97112721E-02
   1.33399999      0.117694914
   1.34500003      0.161365479
   1.35599995      0.164853901
   1.36699998      0.199414805
   1.37800002      0.181790471
   1.38900006       7.05648512E-02
