 -0.959999979       6.82813022E-03
 -0.925000012       1.30573276E-03
 -0.889999986       6.55628555E-03
 -0.855000019       2.53343266E-02
 -0.819999993       4.73357402E-02
 -0.785000026       8.64857137E-02
 -0.750000000      0.162128210
 -0.714999974      0.282122582
 -0.680000007      0.460908413
 -0.644999981      0.704240799
 -0.610000014      0.987653017
 -0.574999988       1.26569808
 -0.540000021       1.44591129
 -0.504999995       1.36401021
 -0.469999999      0.853188336
 -0.435000002     -0.184804767
 -0.400000006      -1.76388192
 -0.365000010      -3.71804976
 -0.330000013      -5.57515097
 -0.294999987      -6.64692354
 -0.259999990      -6.29802179
 -0.224999994      -4.17678690
 -0.189999998     -0.441303968
 -0.155000001       3.99919009
 -0.119999997       7.53379536
  -8.50000009E-02   8.37343121
  -5.00000007E-02   5.28494024
  -1.49999997E-02  -1.76321661
   1.99999996E-02  -11.1920824
   5.49999997E-02  -19.8919582
   9.00000036E-02  -24.0394306
  0.125000000      -20.4593792
  0.159999996      -7.97749615
  0.194999993       11.7370043
  0.230000004       34.2001076
  0.264999986       53.1949501
  0.300000012       62.6783295
  0.335000008       58.8357201
  0.370000005       41.4898415
  0.405000001       14.3111649
  0.439999998      -16.3104954
  0.474999994      -43.3146591
  0.509999990      -61.0915298
  0.545000017      -66.8990326
  0.579999983      -61.1866760
  0.615000010      -46.8537941
  0.649999976      -27.9118958
  0.685000002      -8.28295231
  0.720000029       8.86888027
  0.754999995       21.4136276
  0.790000021       28.3436317
  0.824999988       29.6973095
  0.860000014       26.4115314
  0.894999981       20.1634922
  0.930000007       12.9929705
  0.964999974       6.63016224
   1.00000000       1.96008313
   1.03499997     -0.969422221
   1.07000005      -2.54811931
   1.10500002      -3.17059612
   1.13999999      -2.94987106
   1.17499995      -1.73555934
   1.21000004      0.476337016
   1.24500000       3.07915545
   1.27999997       4.87817478
   1.31500006       4.69123507
   1.35000002       2.09190154
   1.38499999      -2.20009184
   1.41999996      -6.54374075
   1.45500004      -9.16620159
   1.49000001      -9.10043526
   1.52499998      -6.69006443
   1.55999994      -3.32822251
   1.59500003     -0.577418447
   1.63000000      0.762730956
