 -0.959999979       0.00000000
 -0.925000012       1.42669251E-06
 -0.889999986       1.68209517E-05
 -0.855000019       1.20412778E-05
 -0.819999993      -2.46166383E-05
 -0.785000026       2.23756088E-05
 -0.750000000       1.21447301E-04
 -0.714999974       9.71986447E-05
 -0.680000007       5.01585455E-05
 -0.644999981       9.79891411E-05
 -0.610000014      -7.17016201E-06
 -0.574999988      -4.61539894E-04
 -0.540000021      -1.36766047E-03
 -0.504999995      -3.14555247E-03
 -0.469999999      -6.17205352E-03
 -0.435000002      -1.05692213E-02
 -0.400000006      -1.66387782E-02
 -0.365000010      -2.45357938E-02
 -0.330000013      -3.39610577E-02
 -0.294999987      -4.51822095E-02
 -0.259999990      -5.99000379E-02
 -0.224999994      -8.15566182E-02
 -0.189999998     -0.116132393
 -0.155000001     -0.171652585
 -0.119999997     -0.254637361
  -8.50000009E-02 -0.364824533
  -5.00000007E-02 -0.489094466
  -1.49999997E-02 -0.595758975
   1.99999996E-02 -0.633728027
   5.49999997E-02 -0.540453017
   9.00000036E-02 -0.258680254
  0.125000000      0.240080699
  0.159999996      0.931033194
  0.194999993       1.72099793
  0.230000004       2.45261192
  0.264999986       2.93203783
  0.300000012       2.97768712
  0.335000008       2.47856092
  0.370000005       1.44241416
  0.405000001       1.39187025E-02
  0.439999998      -1.54820061
  0.474999994      -2.93286490
  0.509999990      -3.85959125
  0.545000017      -4.15404749
  0.579999983      -3.78965330
  0.615000010      -2.88264060
  0.649999976      -1.64588845
  0.685000002     -0.322865874
  0.720000029      0.871044874
  0.754999995       1.78178334
  0.790000021       2.32276726
  0.824999988       2.46508026
  0.860000014       2.22743082
  0.894999981       1.67518389
  0.930000007      0.923680246
  0.964999974      0.131944686
   1.00000000     -0.524268150
   1.03499997     -0.899283648
   1.07000005     -0.927969277
   1.10500002     -0.654402196
   1.13999999     -0.219630614
   1.17499995      0.191761017
   1.21000004      0.425911605
   1.24500000      0.421196133
   1.27999997      0.226979926
   1.31500006      -2.91970987E-02
   1.35000002     -0.209281892
   1.38499999     -0.233766183
   1.41999996     -0.117334493
   1.45500004       4.64278534E-02
   1.49000001      0.141049206
   1.52499998       9.31510031E-02
   1.55999994      -8.60937238E-02
   1.59500003     -0.305791020
   1.63000000     -0.443593025
