 -0.959999979       0.00000000
 -0.925000012       1.22328535E-19
 -0.889999986       0.00000000
 -0.855000019       1.22350421E-10
 -0.819999993      -1.11382729E-10
 -0.785000026      -6.66225353E-10
 -0.750000000       1.73829462E-09
 -0.714999974      -8.90321705E-10
 -0.680000007       4.48213744E-10
 -0.644999981      -9.59992086E-10
 -0.610000014      -6.71375400E-09
 -0.574999988       2.31270114E-08
 -0.540000021      -8.11326384E-09
 -0.504999995      -1.33511362E-08
 -0.469999999      -3.11127977E-08
 -0.435000002      -1.88860369E-07
 -0.400000006       6.47229797E-07
 -0.365000010      -5.15531440E-07
 -0.330000013      -1.49439416E-07
 -0.294999987       9.77473633E-07
 -0.259999990      -5.74631599E-07
 -0.224999994      -2.22574045E-06
 -0.189999998       2.64933442E-06
 -0.155000001       9.51103857E-07
 -0.119999997      -2.62694630E-08
  -8.50000009E-02  -5.22436892E-07
  -5.00000007E-02  -5.06048173E-06
  -1.49999997E-02   1.65189124E-06
   1.99999996E-02   5.46664796E-06
   5.49999997E-02   6.95687163E-07
   9.00000036E-02  -6.25218536E-06
  0.125000000       5.19627474E-06
  0.159999996      -2.73883575E-06
  0.194999993      -9.42206771E-06
  0.230000004      -4.23524989E-06
  0.264999986       3.01983873E-05
  0.300000012      -1.86844045E-05
  0.335000008       8.17368289E-07
  0.370000005       2.66624484E-05
  0.405000001      -7.01900626E-06
  0.439999998      -4.51006345E-05
  0.474999994       2.25022068E-05
  0.509999990       3.08576891E-05
  0.545000017      -6.13789380E-05
  0.579999983       1.86568866E-06
  0.615000010       9.55317519E-05
  0.649999976      -4.54902874E-05
  0.685000002      -7.46712976E-05
  0.720000029       6.25004977E-05
  0.754999995       1.52863613E-05
  0.790000021      -7.83777796E-05
  0.824999988       4.10477842E-05
  0.860000014       1.08429471E-04
  0.894999981      -6.18145714E-05
  0.930000007      -1.06518652E-04
  0.964999974       5.05943972E-05
   1.00000000       6.81998063E-05
   1.03499997      -3.97412477E-05
   1.07000005      -3.30248549E-05
   1.10500002       5.55153638E-05
   1.13999999       3.22586129E-05
   1.17499995      -5.61522975E-05
   1.21000004      -6.19016500E-05
   1.24500000       2.89211184E-05
   1.27999997       6.92936956E-05
   1.31500006      -4.18142417E-06
   1.35000002      -4.17680276E-05
   1.38499999       7.44784165E-06
   1.41999996      -7.03276669E-07
   1.45500004      -3.45127373E-05
   1.49000001       2.77307372E-05
   1.52499998       5.77330211E-05
   1.55999994      -2.65218587E-05
   1.59500003      -5.08666781E-05
   1.63000000       1.36750668E-05
