 -0.800000012       0.00000000
 -0.788999975       0.00000000
 -0.777999997      -1.43706325E-12
 -0.767000020      -6.82605058E-12
 -0.755999982      -1.60822553E-11
 -0.745000005       5.57563475E-11
 -0.734000027       3.38973728E-12
 -0.722999990      -6.51300402E-11
 -0.712000012      -1.09338406E-11
 -0.700999975       6.32844124E-11
 -0.689999998       2.72579515E-10
 -0.679000020      -1.42809042E-10
 -0.667999983      -3.00945185E-10
 -0.657000005      -1.34648973E-10
 -0.646000028       3.13850640E-10
 -0.634999990       4.55090243E-10
 -0.624000013      -1.12070664E-09
 -0.612999976       4.56402832E-10
 -0.601999998       2.96906411E-09
 -0.591000021      -1.33099032E-10
 -0.579999983      -5.32159339E-09
 -0.569000006       4.68001460E-09
 -0.558000028       4.44771464E-09
 -0.546999991      -1.33057529E-08
 -0.536000013       8.83423734E-09
 -0.524999976       4.10493772E-09
 -0.513999999      -1.07589004E-08
 -0.503000021       3.13015533E-08
 -0.492000014      -2.82220700E-08
 -0.481000006      -3.13577004E-08
 -0.469999999       6.23734664E-08
 -0.458999991      -5.17656673E-08
 -0.448000014       2.17265104E-08
 -0.437000006       1.27247006E-07
 -0.425999999      -1.95842944E-07
 -0.414999992       1.02328048E-08
 -0.404000014       1.89123057E-07
 -0.393000007      -2.09963034E-07
 -0.381999999      -1.51970099E-07
 -0.370999992       2.60760714E-07
 -0.360000014       6.59647768E-08
 -0.349000007      -1.15365253E-07
 -0.338000000       1.92204126E-07
 -0.326999992      -1.77827502E-07
 -0.316000015      -5.28128794E-07
 -0.305000007       4.23409034E-07
 -0.294000000       6.25085875E-07
 -0.282999992      -1.75453238E-07
 -0.272000015       2.71439887E-07
 -0.261000007      -8.01556496E-07
 -0.250000000      -1.42050101E-06
 -0.238999993       1.42671252E-06
 -0.228000000       1.05204583E-06
 -0.216999993      -1.67055339E-06
 -0.206000000       6.02667626E-07
 -0.194999993       2.24343989E-06
 -0.184000000      -2.25816530E-06
 -0.172999993      -1.47848721E-06
 -0.162000000       3.27436555E-06
 -0.150999993      -1.57226430E-06
 -0.140000001      -5.04669833E-06
 -0.128999993       4.52534550E-06
 -0.118000001       6.97739051E-06
 -0.107000001      -3.40884549E-06
  -9.60000008E-02  -1.34796517E-06
  -8.50000009E-02   2.17840784E-06
  -7.40000010E-02  -8.17899399E-06
  -6.30000010E-02  -1.95609005E-06
  -5.20000011E-02   1.24607122E-05
  -4.10000011E-02   5.71922158E-07
  -2.99999993E-02  -1.12741927E-05
  -1.89999994E-02  -1.06167431E-06
  -8.00000038E-03   1.36333895E-07
   3.00000003E-03   1.08398990E-06
   1.40000004E-02   1.51315171E-05
   2.50000004E-02   4.05723904E-06
   3.59999985E-02  -1.67444850E-05
   4.69999984E-02  -7.07664458E-06
   5.79999983E-02   4.79452638E-06
   6.89999983E-02  -4.52479071E-06
   7.99999982E-02   4.70426539E-06
   9.09999982E-02   1.90379669E-05
  0.101999998      -8.23375956E-07
  0.112999998      -1.58347721E-05
  0.123999998      -6.93920265E-06
  0.135000005      -7.61933052E-07
  0.145999998       4.65557122E-07
  0.157000005       2.45601427E-06
  0.167999998       5.89378305E-06
  0.179000005       1.36923900E-05
  0.189999998       6.13123029E-06
  0.201000005      -1.94547392E-05
  0.211999997      -1.29308210E-05
  0.223000005       1.39862450E-05
  0.233999997      -3.26554868E-06
  0.245000005      -1.79689141E-05
  0.256000012       1.65074325E-05
  0.266999990       2.34502622E-05
  0.277999997      -9.87145086E-06
  0.289000005      -1.01257710E-05
  0.300000012       2.04777257E-06
  0.310999990      -1.27061021E-05
  0.321999997      -1.20519371E-05
  0.333000004       1.34304446E-05
  0.344000012       1.51942377E-05
  0.354999989      -2.03783156E-06
  0.365999997       1.50812036E-06
  0.377000004       9.40164045E-06
  0.388000011      -3.09117831E-06
  0.398999989      -1.69105824E-05
  0.409999996      -1.24197122E-05
  0.421000004       5.97419148E-06
  0.432000011       1.80019288E-05
  0.442999989       8.47962747E-06
  0.453999996      -7.48156162E-06
  0.465000004      -5.84515374E-06
  0.476000011       7.95387962E-07
  0.486999989      -6.28870112E-06
  0.497999996      -7.88839225E-06
  0.509000003       7.40019141E-06
  0.519999981       1.52500179E-05
  0.531000018      -2.57907254E-06
  0.541999996      -1.52089697E-05
  0.552999973       2.42391138E-06
  0.564000010       1.30676144E-05
  0.574999988      -5.10007430E-06
  0.586000025      -8.55030521E-06
  0.597000003       1.34415541E-05
  0.607999980       6.81240590E-06
  0.619000018      -1.92388379E-05
  0.629999995      -8.60702130E-06
  0.640999973       1.43290590E-05
  0.652000010       7.05834327E-06
  0.662999988      -6.70479540E-06
  0.674000025      -8.84549809E-06
  0.685000002      -4.58309842E-06
  0.695999980       1.19822062E-05
  0.707000017       1.60593208E-05
  0.717999995      -1.12835696E-05
  0.728999972      -1.81393243E-05
  0.740000010       9.41728194E-06
  0.750999987       9.02804732E-06
  0.762000024      -1.30238550E-05
  0.773000002      -2.74392255E-06
  0.783999979       1.41419978E-05
  0.795000017       2.03958143E-06
  0.805999994      -8.54264454E-06
  0.816999972      -3.27724280E-07
  0.828000009       6.07533502E-06
  0.838999987       3.34874562E-06
  0.850000024      -2.15584214E-06
  0.861000001      -4.00255567E-06
  0.871999979      -1.49880566E-06
  0.883000016      -2.38763550E-06
  0.893999994      -1.27931571E-06
  0.904999971       6.45208638E-06
  0.916000009       2.79949722E-06
  0.926999986      -6.26109932E-06
  0.938000023       2.95534710E-06
  0.949000001       7.68589052E-06
  0.959999979      -9.00393843E-06
  0.971000016      -9.56657550E-06
  0.981999993       9.04140779E-06
  0.992999971       5.73254329E-06
   1.00399995      -1.01499545E-05
   1.01499999      -3.98484690E-06
   1.02600002       1.23556401E-05
   1.03699994       1.06262123E-05
   1.04799998      -8.07227843E-06
   1.05900002      -1.50920796E-05
   1.07000005       3.49160837E-06
   1.08099997       1.15804687E-05
   1.09200001      -8.36907657E-06
   1.10300004      -8.64333288E-06
   1.11399996       1.57631985E-05
   1.12500000       9.59064073E-06
   1.13600004      -1.35462042E-05
   1.14699996      -6.12259191E-06
   1.15799999       5.77347055E-06
   1.16900003      -9.49427147E-07
   1.17999995       5.14875808E-07
   1.19099998       5.69019858E-06
   1.20200002      -1.65369704E-06
   1.21300006      -2.19743492E-06
   1.22399998       4.81641973E-06
   1.23500001       1.35254425E-06
   1.24600005      -5.87262002E-06
   1.25699997      -8.94653385E-06
   1.26800001      -4.69901443E-06
   1.27900004       9.08042421E-06
   1.28999996       9.39239271E-06
   1.30100000      -6.75543561E-06
   1.31200004      -3.53424821E-06
   1.32299995       8.26428732E-06
   1.33399999      -4.10429402E-06
   1.34500003      -9.61351179E-06
   1.35599995       8.68342249E-06
   1.36699998       1.00181878E-05
   1.37800002      -3.79472726E-06
   1.38900006      -3.43002466E-06
